 Entering Gaussian System, Link 0=g16
 Input=1_elaeocarpine_c_1.gjf
 Output=1_elaeocarpine_c_1.log
 Initial command:
 /opt/gaussian/g16/l1.exe "/home/mbenidd/Bureau/Elaeocarpines/HF_NMR/Elaeocarpine/1_elaeocarpine_c_1/Gau-12548.inp" -scrdir="/home/mbenidd/Bureau/Elaeocarpines/HF_NMR/Elaeocarpine/1_elaeocarpine_c_1/"
 Entering Link 1 = /opt/gaussian/g16/l1.exe PID=     12550.
  
 Copyright (c) 1988-2017, Gaussian, Inc.  All Rights Reserved.
  
 This is part of the Gaussian(R) 16 program.  It is based on
 the Gaussian(R) 09 system (copyright 2009, Gaussian, Inc.),
 the Gaussian(R) 03 system (copyright 2003, Gaussian, Inc.),
 the Gaussian(R) 98 system (copyright 1998, Gaussian, Inc.),
 the Gaussian(R) 94 system (copyright 1995, Gaussian, Inc.),
 the Gaussian 92(TM) system (copyright 1992, Gaussian, Inc.),
 the Gaussian 90(TM) system (copyright 1990, Gaussian, Inc.),
 the Gaussian 88(TM) system (copyright 1988, Gaussian, Inc.),
 the Gaussian 86(TM) system (copyright 1986, Carnegie Mellon
 University), and the Gaussian 82(TM) system (copyright 1983,
 Carnegie Mellon University). Gaussian is a federally registered
 trademark of Gaussian, Inc.
  
 This software contains proprietary and confidential information,
 including trade secrets, belonging to Gaussian, Inc.
  
 This software is provided under written license and may be
 used, copied, transmitted, or stored only in accord with that
 written license.
  
 The following legend is applicable only to US Government
 contracts under FAR:
  
                    RESTRICTED RIGHTS LEGEND
  
 Use, reproduction and disclosure by the US Government is
 subject to restrictions as set forth in subparagraphs (a)
 and (c) of the Commercial Computer Software - Restricted
 Rights clause in FAR 52.227-19.
  
 Gaussian, Inc.
 340 Quinnipiac St., Bldg. 40, Wallingford CT 06492
  
  
 ---------------------------------------------------------------
 Warning -- This program may not be used in any manner that
 competes with the business of Gaussian, Inc. or will provide
 assistance to any competitor of Gaussian, Inc.  The licensee
 of this program is prohibited from giving any competitor of
 Gaussian, Inc. access to this program.  By using this program,
 the user acknowledges that Gaussian, Inc. is engaged in the
 business of creating and licensing software in the field of
 computational chemistry and represents and warrants to the
 licensee that it is not a competitor of Gaussian, Inc. and that
 it will not use this program in any manner prohibited above.
 ---------------------------------------------------------------
  

 Cite this work as:
 Gaussian 16, Revision B.01,
 M. J. Frisch, G. W. Trucks, H. B. Schlegel, G. E. Scuseria, 
 M. A. Robb, J. R. Cheeseman, G. Scalmani, V. Barone, 
 G. A. Petersson, H. Nakatsuji, X. Li, M. Caricato, A. V. Marenich, 
 J. Bloino, B. G. Janesko, R. Gomperts, B. Mennucci, H. P. Hratchian, 
 J. V. Ortiz, A. F. Izmaylov, J. L. Sonnenberg, D. Williams-Young, 
 F. Ding, F. Lipparini, F. Egidi, J. Goings, B. Peng, A. Petrone, 
 T. Henderson, D. Ranasinghe, V. G. Zakrzewski, J. Gao, N. Rega, 
 G. Zheng, W. Liang, M. Hada, M. Ehara, K. Toyota, R. Fukuda, 
 J. Hasegawa, M. Ishida, T. Nakajima, Y. Honda, O. Kitao, H. Nakai, 
 T. Vreven, K. Throssell, J. A. Montgomery, Jr., J. E. Peralta, 
 F. Ogliaro, M. J. Bearpark, J. J. Heyd, E. N. Brothers, K. N. Kudin, 
 V. N. Staroverov, T. A. Keith, R. Kobayashi, J. Normand, 
 K. Raghavachari, A. P. Rendell, J. C. Burant, S. S. Iyengar, 
 J. Tomasi, M. Cossi, J. M. Millam, M. Klene, C. Adamo, R. Cammi, 
 J. W. Ochterski, R. L. Martin, K. Morokuma, O. Farkas, 
 J. B. Foresman, and D. J. Fox, Gaussian, Inc., Wallingford CT, 2016.
 
 ******************************************
 Gaussian 16:  EM64L-G16RevB.01 20-Dec-2017
                30-Apr-2026 
 ******************************************
 %nprocshared=4
 Will use up to    4 processors via shared memory.
 ----------------------------
 # nmr=giao hf/sto-3g pop=nbo
 ----------------------------
 1/38=1,172=1/1;
 2/12=2,17=6,18=5,40=1/2;
 3/6=3,11=9,25=1,30=1/1,2,3,8;
 4//1;
 5/5=2,38=5/2;
 8/6=1,10=90,11=11/1;
 10/13=100,45=16/2;
 6/7=2,8=2,9=2,10=2,28=1,40=1,64=1/1,7;
 99/9=1/99;
 -------------------
 Title Card Required
 -------------------
 Symbolic Z-matrix:
 Charge =  0 Multiplicity = 1
 C                     0.        0.        0. 
 C                     1.4069    0.        0. 
 C                     2.127     1.1945    0. 
 C                     1.4526    2.4107   -0.0114 
 C                     0.0583    2.4348   -0.033 
 C                    -0.6748    1.2369   -0.0128 
 C                    -2.1537    1.3494    0.0221 
 O                    -0.4993    3.689    -0.0557 
 C                    -1.861     3.6941   -0.5009 
 C                    -2.6958    2.7253    0.3349 
 C                    -2.3906    5.1285   -0.3976 
 C                    -3.8835    5.2      -0.7181 
 N                    -4.5896    4.2761    0.1568 
 C                    -4.1662    2.8808   -0.0379 
 C                    -5.1661    2.1632    0.8605 
 C                    -6.4517    2.9807    0.7111 
 C                    -6.039     4.2656   -0.0041 
 O                    -2.8797    0.3787   -0.1671 
 C                    -0.7119   -1.325     0.023 
 H                    -2.543     2.9004    1.4088 
 H                    -1.8729    3.4066   -1.5637 
 H                    -4.333     2.5679   -1.0799 
 H                     1.9557   -0.9406    0.0091 
 H                     3.2141    1.1749    0.0087 
 H                     2.0124    3.3426   -0.0132 
 H                    -2.2016    5.5189    0.6117 
 H                    -1.8277    5.7802   -1.0768 
 H                    -4.234     6.2244   -0.5479 
 H                    -4.0547    4.9627   -1.7756 
 H                    -4.8428    2.1703    1.9088 
 H                    -5.3232    1.1215    0.5645 
 H                    -7.2006    2.4358    0.1264 
 H                    -6.8801    3.1911    1.6974 
 H                    -6.5093    5.1455    0.4456 
 H                    -6.331     4.2145   -1.0604 
 H                    -1.37     -1.3935    0.8949 
 H                    -0.0043   -2.1587    0.0934 
 H                    -1.2861   -1.4673   -0.8977 
 
                          Input orientation:                          
 ---------------------------------------------------------------------
 Center     Atomic      Atomic             Coordinates (Angstroms)
 Number     Number       Type             X           Y           Z
 ---------------------------------------------------------------------
      1          6           0        0.000000    0.000000    0.000000
      2          6           0        1.406900    0.000000    0.000000
      3          6           0        2.127000    1.194500    0.000000
      4          6           0        1.452600    2.410700   -0.011400
      5          6           0        0.058300    2.434800   -0.033000
      6          6           0       -0.674800    1.236900   -0.012800
      7          6           0       -2.153700    1.349400    0.022100
      8          8           0       -0.499300    3.689000   -0.055700
      9          6           0       -1.861000    3.694100   -0.500900
     10          6           0       -2.695800    2.725300    0.334900
     11          6           0       -2.390600    5.128500   -0.397600
     12          6           0       -3.883500    5.200000   -0.718100
     13          7           0       -4.589600    4.276100    0.156800
     14          6           0       -4.166200    2.880800   -0.037900
     15          6           0       -5.166100    2.163200    0.860500
     16          6           0       -6.451700    2.980700    0.711100
     17          6           0       -6.039000    4.265600   -0.004100
     18          8           0       -2.879700    0.378700   -0.167100
     19          6           0       -0.711900   -1.325000    0.023000
     20          1           0       -2.543000    2.900400    1.408800
     21          1           0       -1.872900    3.406600   -1.563700
     22          1           0       -4.333000    2.567900   -1.079900
     23          1           0        1.955700   -0.940600    0.009100
     24          1           0        3.214100    1.174900    0.008700
     25          1           0        2.012400    3.342600   -0.013200
     26          1           0       -2.201600    5.518900    0.611700
     27          1           0       -1.827700    5.780200   -1.076800
     28          1           0       -4.234000    6.224400   -0.547900
     29          1           0       -4.054700    4.962700   -1.775600
     30          1           0       -4.842800    2.170300    1.908800
     31          1           0       -5.323200    1.121500    0.564500
     32          1           0       -7.200600    2.435800    0.126400
     33          1           0       -6.880100    3.191100    1.697400
     34          1           0       -6.509300    5.145500    0.445600
     35          1           0       -6.331000    4.214500   -1.060400
     36          1           0       -1.370000   -1.393500    0.894900
     37          1           0       -0.004300   -2.158700    0.093400
     38          1           0       -1.286100   -1.467300   -0.897700
 ---------------------------------------------------------------------
                    Distance matrix (angstroms):
                    1          2          3          4          5
     1  C    0.000000
     2  C    1.406900   0.000000
     3  C    2.439459   1.394767   0.000000
     4  C    2.814543   2.411160   1.390715   0.000000
     5  C    2.435721   2.783534   2.412251   1.394676   0.000000
     6  C    1.409057   2.421479   2.802150   2.429741   1.404567
     7  C    2.541612   3.807787   4.283559   3.759372   2.464563
     8  O    3.723053   4.152761   3.622580   2.333651   1.372753
     9  C    4.166605   4.957464   4.733185   3.587014   2.342750
    10  C    3.847955   4.936757   5.070987   4.174700   2.793709
    11  C    5.672263   6.393794   6.003595   4.722899   3.658697
    12  C    6.529720   7.452785   7.258499   6.062473   4.863484
    13  N    6.274874   7.366657   7.391452   6.325835   5.002938
    14  C    5.065340   6.273746   6.515321   5.638494   4.247981
    15  C    5.666435   6.973107   7.407304   6.680468   5.307209
    16  C    7.142455   8.434917   8.791488   7.957692   6.575089
    17  C    7.393570   8.581188   8.724404   7.717822   6.366297
    18  O    2.909297   4.306539   5.075480   4.787702   3.588506
    19  C    1.504312   2.499093   3.795756   4.317603   3.838286
    20  H    4.106566   5.098897   5.167563   4.268676   3.010371
    21  H    4.190207   4.980680   4.830915   3.802684   2.648957
    22  H    5.151231   6.380184   6.692086   5.885539   4.516329
    23  H    2.170155   1.089033   2.141980   3.388915   3.872367
    24  H    3.422120   2.155560   1.087311   2.151857   3.398258
    25  H    3.901654   3.397025   2.151195   1.087114   2.154762
    26  H    5.973230   6.622213   6.149097   4.837596   3.877429
    27  H    6.157166   6.710652   6.150430   4.821719   3.979726
    28  H    7.547854   8.418022   8.127879   6.868010   5.748916
    29  H    6.649943   7.590140   7.454227   6.321033   5.132612
    30  H    5.639719   6.885671   7.292038   6.586123   5.278383
    31  H    5.469267   6.846216   7.471912   6.921356   5.571562
    32  H    7.602482   8.946405   9.410681   8.654334   7.260650
    33  H    7.771748   9.040943   9.380588   8.541833   7.190804
    34  H    8.309375   9.452034   9.507609   8.430886   7.121118
    35  H    7.679064   8.874771   9.043374   8.058444   6.711634
    36  H    2.149323   3.233243   4.441576   4.822902   4.190098
    37  H    2.160724   2.580735   3.974307   4.797182   4.595665
    38  H    2.147763   3.195479   4.420441   4.829585   4.216812
                    6          7          8          9         10
     6  C    0.000000
     7  C    1.483583   0.000000
     8  O    2.458747   2.866500   0.000000
     9  C    2.771848   2.420087   1.432640   0.000000
    10  C    2.533904   1.511561   2.430205   1.527752   0.000000
    11  C    4.270432   3.809707   2.401265   1.532531   2.530825
    12  C    5.147753   4.285700   3.764931   2.530893   2.939997
    13  N    4.958947   3.810161   4.137680   2.866453   2.454217
    14  C    3.859133   2.529613   3.754951   2.487925   1.524873
    15  C    4.668240   3.231058   4.994648   3.888541   2.587391
    16  C    6.077618   4.648512   6.043239   4.801293   3.783324
    17  C    6.160174   4.858031   5.569866   4.246070   3.696543
    18  O    2.371055   1.226838   4.078823   3.484401   2.406731
    19  C    2.562419   3.038290   5.019122   5.175545   4.520848
    20  H    2.877212   2.116623   2.635026   2.177622   1.098758
    21  H    2.923753   2.612601   2.059269   1.101064   2.178535
    22  H    4.036421   2.729193   4.123482   2.777472   2.169529
    23  H    3.414896   4.704406   5.240651   6.025591   5.931393
    24  H    3.889454   5.370652   4.484884   5.688822   6.118584
    25  H    3.413944   4.618493   2.535830   3.919774   4.761237
    26  H    4.588752   4.211253   2.586848   2.164205   2.850448
    27  H    4.806542   4.576663   2.679629   2.164390   3.475472
    28  H    6.150560   5.330870   4.540760   3.469259   3.922894
    29  H    5.330363   4.461106   4.149848   2.836640   3.362555
    30  H    4.683589   3.385967   5.003169   4.125500   2.719337
    31  H    4.685533   3.223642   5.499701   4.442992   3.086766
    32  H    6.636475   5.163559   6.819904   5.521608   4.518905
    33  H    6.726770   5.342036   6.635953   5.502445   4.425126
    34  H    7.037661   5.793184   6.204256   4.960758   4.518009
    35  H    6.477358   5.179811   5.940900   4.534838   4.168844
    36  H    2.868140   2.983197   5.243431   5.298397   4.363010
    37  H    3.462795   4.114823   5.870507   6.168938   5.581752
    38  H    2.910229   3.087485   5.283507   5.208456   4.591781
                   11         12         13         14         15
    11  C    0.000000
    12  C    1.528589   0.000000
    13  N    2.422715   1.455204   0.000000
    14  C    2.886918   2.433368   1.471067   0.000000
    15  C    4.251967   3.655023   2.300411   1.523769   0.000000
    16  C    4.725970   3.682873   2.335107   2.407175   1.530815
    17  C    3.769650   2.455418   1.458341   2.329419   2.435072
    18  O    4.780476   4.955416   4.268301   2.816430   3.077016
    19  C    6.681512   7.292729   6.813720   5.442853   5.719165
    20  H    2.872409   3.407170   2.765615   2.174420   2.779344
    21  H    2.143068   2.823798   3.331157   2.804239   4.274103
    22  H    3.285593   2.694606   2.124433   1.100678   2.150114
    23  H    7.475942   8.504825   8.371184   7.216853   7.815273
    24  H    6.870858   8.191800   8.398637   7.575031   8.481159
    25  H    4.766929   6.221612   6.669837   6.195883   7.327018
    26  H    1.098553   2.167684   2.730207   3.352791   4.484516
    27  H    1.096760   2.166013   3.378191   3.867094   5.289682
    28  H    2.149816   1.095999   2.102124   3.382951   4.398380
    29  H    2.166934   1.097236   2.119365   2.714100   4.002678
    30  H    4.481486   4.123099   2.751001   2.179963   1.097044
    31  H    5.057848   4.511315   3.264336   2.190130   1.094274
    32  H    5.537266   4.399674   3.194519   3.071254   2.180001
    33  H    5.319601   4.341651   2.965984   3.236171   2.166743
    34  H    4.204160   2.872628   2.127090   3.294352   3.297035
    35  H    4.098957   2.660571   2.125522   2.740551   3.042151
    36  H    6.726713   7.238349   6.561629   5.192157   5.202084
    37  H    7.683671   8.358061   7.901623   6.537217   6.775798
    38  H    6.706310   7.157628   6.709078   5.285850   5.596981
                   16         17         18         19         20
    16  C    0.000000
    17  C    1.527351   0.000000
    18  O    4.505643   5.011560   0.000000
    19  C    7.208179   7.722275   2.763709   0.000000
    20  H    3.971293   4.010246   2.992624   4.809093   0.000000
    21  H    5.130450   4.530632   3.483147   5.123824   3.088856
    22  H    2.804813   2.636279   2.781705   5.429864   3.083551
    23  H    9.303428   9.540436   5.015246   2.695189   6.078712
    24  H    9.858092   9.755637   6.148109   4.654372   6.171048
    25  H    8.502739   8.104138   5.721978   5.404592   4.792629
    26  H    4.951332   4.083578   5.242900   7.028851   2.758345
    27  H    5.693432   4.602146   5.577675   7.275880   3.870802
    28  H    4.126120   2.718573   6.012599   8.350123   4.211547
    29  H    3.982161   2.749838   4.998095   7.344688   4.083959
    30  H    2.163283   3.079020   3.372381   5.730419   2.464168
    31  H    2.179823   3.274300   2.656630   5.248111   3.406881
    32  H    1.095281   2.171293   4.794578   7.500502   4.853209
    33  H    1.095711   2.181078   5.233465   7.825948   4.356401
    34  H    2.181781   1.094366   6.022606   8.698035   4.658301
    35  H    2.162185   1.097108   5.236680   7.964553   4.708795
    36  H    6.707539   7.391426   2.558853   1.094531   4.480803
    37  H    8.268250   8.814689   3.843720   1.095769   5.811176
    38  H    7.004025   7.500315   2.545791   1.094369   5.096719
                   21         22         23         24         25
    21  H    0.000000
    22  H    2.643780   0.000000
    23  H    6.002502   7.283079   0.000000
    24  H    5.773257   7.751401   2.461486   0.000000
    25  H    4.183743   6.480903   4.283633   2.478606   0.000000
    26  H    3.049954   4.014072   7.705285   6.968770   4.783783
    27  H    2.423446   4.073746   7.788610   6.914249   4.671135
    28  H    3.814006   3.696325   9.484717   9.015622   6.899869
    29  H    2.688234   2.509286   8.611563   8.388481   6.522306
    30  H    4.733603   3.057828   7.714024   8.337556   7.215410
    31  H    4.653546   2.403460   7.585718   8.555540   7.686225
    32  H    5.673031   3.113798   9.759696  10.491411   9.258571
    33  H    5.979403   3.819619   9.899124  10.431186   9.056802
    34  H    5.343900   3.702358  10.434911  10.511948   8.722403
    35  H    4.558582   2.589146   9.817753  10.074278   8.453944
    36  H    5.416510   5.326527   3.471317   5.328790   5.890324
    37  H    6.100017   6.515752   2.309215   4.634454   5.860268
    38  H    4.954068   5.059608   3.407193   5.296658   5.898947
                   26         27         28         29         30
    26  H    0.000000
    27  H    1.749031   0.000000
    28  H    2.443983   2.503463   0.000000
    29  H    3.072872   2.473086   1.769543   0.000000
    30  H    4.457749   5.570998   4.779303   4.689712   0.000000
    31  H    5.392934   6.051105   5.335108   4.673326   1.771414
    32  H    5.893303   6.442108   4.858898   4.460887   2.967602
    33  H    5.337205   6.318732   4.609135   4.814892   2.288518
    34  H    4.327042   4.963660   2.707039   3.315450   3.710794
    35  H    4.642125   4.767745   2.949536   2.500571   3.899954
    36  H    6.968001   7.453795   8.265384   7.398680   5.078287
    37  H    8.002644   8.229234   9.411588   8.403168   6.741439
    38  H    7.205791   7.269915   8.244678   7.055548   5.810223
                   31         32         33         34         35
    31  H    0.000000
    32  H    2.333227   0.000000
    33  H    2.826773   1.772354   0.000000
    34  H    4.196850   2.814651   2.350356   0.000000
    35  H    3.636291   2.308348   2.992377   1.779491   0.000000
    36  H    4.697039   7.017836   7.212750   8.329033   7.738500
    37  H    6.266765   8.537989   8.858318   9.787257   9.054063
    38  H    5.013790   7.159908   7.728394   8.533194   7.600022
                   36         37         38
    36  H    0.000000
    37  H    1.758713   0.000000
    38  H    1.796079   1.761626   0.000000
 Stoichiometry    C16H19NO2
 Framework group  C1[X(C16H19NO2)]
 Deg. of freedom   108
 Full point group                 C1      NOp   1
 Largest Abelian subgroup         C1      NOp   1
 Largest concise Abelian subgroup C1      NOp   1
                         Standard orientation:                         
 ---------------------------------------------------------------------
 Center     Atomic      Atomic             Coordinates (Angstroms)
 Number     Number       Type             X           Y           Z
 ---------------------------------------------------------------------
      1          6           0        3.044771    1.053675    0.094350
      2          6           0        4.280805    0.392236   -0.024336
      3          6           0        4.343370   -0.986960   -0.222529
      4          6           0        3.170660   -1.731062   -0.294295
      5          6           0        1.934613   -1.099596   -0.158066
      6          6           0        1.861857    0.291528    0.021621
      7          6           0        0.508200    0.893740    0.098893
      8          8           0        0.846601   -1.933314   -0.232873
      9          6           0       -0.343520   -1.360498    0.322058
     10          6           0       -0.630784   -0.005866   -0.323293
     11          6           0       -1.495378   -2.346560    0.099443
     12          6           0       -2.834874   -1.752283    0.534378
     13          7           0       -3.031255   -0.491748   -0.165697
     14          6           0       -1.989588    0.497259    0.151843
     15          6           0       -2.543001    1.719514   -0.570444
     16          6           0       -4.059724    1.590602   -0.408185
     17          6           0       -4.296495    0.176076    0.117037
     18          8           0        0.337312    2.053991    0.459096
     19          6           0        3.051245    2.545957    0.284101
     20          1           0       -0.600940   -0.078453   -1.419244
     21          1           0       -0.196149   -1.254662    1.408070
     22          1           0       -1.966585    0.700989    1.233258
     23          1           0        5.211682    0.954960    0.028590
     24          1           0        5.307628   -1.479743   -0.320592
     25          1           0        3.217755   -2.806372   -0.446966
     26          1           0       -1.535230   -2.632866   -0.960396
     27          1           0       -1.298693   -3.274968    0.649221
     28          1           0       -3.635006   -2.455898    0.277615
     29          1           0       -2.851516   -1.614538    1.622806
     30          1           0       -2.282689    1.709511   -1.636109
     31          1           0       -2.178124    2.659062   -0.144356
     32          1           0       -4.446273    2.334758    0.296409
     33          1           0       -4.555641    1.748124   -1.372464
     34          1           0       -5.138337   -0.305820   -0.389634
     35          1           0       -4.508155    0.208566    1.193043
     36          1           0        2.488849    3.038277   -0.515480
     37          1           0        4.069429    2.949557    0.250658
     38          1           0        2.632554    2.809741    1.260195
 ---------------------------------------------------------------------
 Rotational constants (GHZ):           0.8239277           0.2582345           0.2026514
 Standard basis: STO-3G (5D, 7F)
 There are   114 symmetry adapted cartesian basis functions of A   symmetry.
 There are   114 symmetry adapted basis functions of A   symmetry.
   114 basis functions,   342 primitive gaussians,   114 cartesian basis functions
    69 alpha electrons       69 beta electrons
       nuclear repulsion energy      1480.5181636563 Hartrees.
 NAtoms=   38 NActive=   38 NUniq=   38 SFac= 1.00D+00 NAtFMM=   60 NAOKFM=F Big=F
 Integral buffers will be    131072 words long.
 Raffenetti 1 integral format.
 Two-electron integral symmetry is turned on.
 One-electron integrals computed using PRISM.
 NBasis=   114 RedAO= T EigKep=  1.74D-01  NBF=   114
 NBsUse=   114 1.00D-06 EigRej= -1.00D+00 NBFU=   114
 ExpMin= 1.69D-01 ExpMax= 1.31D+02 ExpMxC= 1.31D+02 IAcc=3 IRadAn=         5 AccDes= 0.00D+00
 Harris functional with IExCor=  205 and IRadAn=       5 diagonalized for initial guess.
 HarFok:  IExCor=  205 AccDes= 0.00D+00 IRadAn=         5 IDoV= 1 UseB2=F ITyADJ=14
 ICtDFT=  3500011 ScaDFX=  1.000000  1.000000  1.000000  1.000000
 FoFCou: FMM=F IPFlag=           0 FMFlag=      100000 FMFlg1=           0
         NFxFlg=           0 DoJE=T BraDBF=F KetDBF=T FulRan=T
         wScrn=  0.000000 ICntrl=       500 IOpCl=  0 I1Cent=   200000004 NGrid=           0
         NMat0=    1 NMatS0=      1 NMatT0=    0 NMatD0=    1 NMtDS0=    0 NMtDT0=    0
 Petite list used in FoFCou.
 Requested convergence on RMS density matrix=1.00D-08 within 128 cycles.
 Requested convergence on MAX density matrix=1.00D-06.
 Requested convergence on             energy=1.00D-06.
 No special actions if energy rises.
 Integral accuracy reduced to 1.0D-05 until final iterations.
 Initial convergence to 1.0D-05 achieved.  Increase integral accuracy.
 SCF Done:  E(RHF) =  -811.064227340     A.U. after   17 cycles
            NFock= 17  Conv=0.76D-08     -V/T= 2.0094
 Range of M.O.s used for correlation:     1   114
 NBasis=   114 NAE=    69 NBE=    69 NFC=     0 NFV=     0
 NROrb=    114 NOA=    69 NOB=    69 NVA=    45 NVB=    45
          Differentiating once with respect to magnetic field using GIAOs.
          Electric field/nuclear overlap derivatives assumed to be zero.
 FoFCou: FMM=F IPFlag=           0 FMFlag=      100000 FMFlg1=           0
         NFxFlg=           0 DoJE=F BraDBF=F KetDBF=T FulRan=T
         wScrn=  0.000000 ICntrl=      6100 IOpCl=  0 I1Cent=           7 NGrid=          38
         NMat0=    1 NMatS0=      1 NMatT0=    0 NMatD0=    1 NMtDS0=    0 NMtDT0=    0
 Symmetry not used in FoFCou.
 FoFJK:  IHMeth= 1 ICntrl=    6127 DoSepK=F KAlg= 0 I1Cent=           0 FoldK=F
 IRaf=         1 NMat=       1 IRICut=       1 DoRegI=T DoRafI=F ISym2E= 0 IDoP0=0 IntGTp=1.
          There are     3 degrees of freedom in the 1st order CPHF.  IDoFFX=0 NUNeed=     3.
      3 vectors produced by pass  0 Test12= 1.04D-13 3.33D-08 XBig12= 2.97D+01 1.63D+00.
 AX will form     3 AO Fock derivatives at one time.
      3 vectors produced by pass  1 Test12= 1.04D-13 3.33D-08 XBig12= 1.83D-01 2.43D-01.
      3 vectors produced by pass  2 Test12= 1.04D-13 3.33D-08 XBig12= 3.00D-03 1.80D-02.
      3 vectors produced by pass  3 Test12= 1.04D-13 3.33D-08 XBig12= 8.61D-05 1.86D-03.
      3 vectors produced by pass  4 Test12= 1.04D-13 3.33D-08 XBig12= 1.09D-06 1.52D-04.
      3 vectors produced by pass  5 Test12= 1.04D-13 3.33D-08 XBig12= 1.24D-08 1.88D-05.
      3 vectors produced by pass  6 Test12= 1.04D-13 3.33D-08 XBig12= 2.28D-10 2.48D-06.
      3 vectors produced by pass  7 Test12= 1.04D-13 3.33D-08 XBig12= 3.24D-12 2.61D-07.
      2 vectors produced by pass  8 Test12= 1.04D-13 3.33D-08 XBig12= 5.96D-14 4.69D-08.
 InvSVY:  IOpt=1 It=  1 EMax= 8.88D-16
 Solved reduced A of dimension    26 with     3 vectors.
 Calculating GIAO nuclear magnetic shielding tensors.
 SCF GIAO Magnetic shielding tensor (ppm):
      1  C    Isotropic =   114.1843   Anisotropy =   168.8576
   XX=    82.6859   YX=    -7.8812   ZX=     2.9950
   XY=   -11.2288   YY=    36.1465   ZY=   -23.6565
   XZ=     1.8026   YZ=   -23.7368   ZZ=   223.7204
   Eigenvalues:    31.5471    84.2498   226.7560
      2  C    Isotropic =   123.9498   Anisotropy =   142.9787
   XX=    58.5072   YX=   -39.7067   ZX=    -1.5396
   XY=   -35.1470   YY=    96.2560   ZY=   -16.3534
   XZ=     0.8618   YZ=   -15.3896   ZZ=   217.0862
   Eigenvalues:    35.0529   117.5275   219.2689
      3  C    Isotropic =   117.2462   Anisotropy =   168.3367
   XX=    38.6794   YX=    32.4855   ZX=     9.5214
   XY=    34.1248   YY=    87.0295   ZY=   -21.4674
   XZ=    11.8568   YZ=   -21.6749   ZZ=   226.0298
   Eigenvalues:    19.8679   102.4001   229.4707
      4  C    Isotropic =   131.5294   Anisotropy =   145.3773
   XX=   116.4765   YX=     3.2312   ZX=     4.6347
   XY=     6.2148   YY=    52.7585   ZY=   -25.3462
   XZ=     5.8033   YZ=   -19.8315   ZZ=   225.3531
   Eigenvalues:    49.4234   116.7172   228.4476
      5  C    Isotropic =   104.0631   Anisotropy =   132.2869
   XX=    56.8795   YX=   -18.6097   ZX=     4.0568
   XY=    -9.6406   YY=    64.5287   ZY=   -15.3637
   XZ=     1.5539   YZ=   -10.7823   ZZ=   190.7813
   Eigenvalues:    45.8368    74.0982   192.2544
      6  C    Isotropic =   130.7315   Anisotropy =   146.5549
   XX=    73.3933   YX=    18.0908   ZX=     4.3260
   XY=    16.3374   YY=    94.0685   ZY=   -18.9795
   XZ=     1.4232   YZ=   -25.6265   ZZ=   224.7328
   Eigenvalues:    62.4734   101.2864   228.4348
      7  C    Isotropic =    90.4074   Anisotropy =   137.0980
   XX=   -37.2836   YX=   -15.2358   ZX=   -27.6664
   XY=   -15.0557   YY=   136.8999   ZY=   -19.3593
   XZ=   -24.7975   YZ=   -19.4596   ZZ=   171.6058
   Eigenvalues:   -42.2333   131.6495   181.8060
      8  O    Isotropic =   333.9056   Anisotropy =    86.3904
   XX=   285.5977   YX=    33.5502   ZX=    23.2661
   XY=    47.9660   YY=   327.8965   ZY=   -17.9837
   XZ=     6.7570   YZ=    21.2673   ZZ=   388.2225
   Eigenvalues:   259.7046   350.5130   391.4992
      9  C    Isotropic =   184.3545   Anisotropy =    49.7887
   XX=   206.9703   YX=   -10.5401   ZX=   -14.0902
   XY=   -13.9927   YY=   178.6574   ZY=     5.3380
   XZ=   -18.3041   YZ=     7.0586   ZZ=   167.4357
   Eigenvalues:   161.4326   174.0839   217.5470
     10  C    Isotropic =   208.1905   Anisotropy =    11.3632
   XX=   214.0192   YX=    -3.1825   ZX=    -3.6767
   XY=     1.9412   YY=   200.6434   ZY=    -3.2017
   XZ=    -2.7204   YZ=     0.9848   ZZ=   209.9089
   Eigenvalues:   200.4346   208.3710   215.7659
     11  C    Isotropic =   217.9198   Anisotropy =    13.8995
   XX=   226.5614   YX=     0.8351   ZX=    -2.5105
   XY=     3.4523   YY=   218.4918   ZY=     4.2634
   XZ=    -1.2606   YZ=     0.4016   ZZ=   208.7061
   Eigenvalues:   207.8884   218.6848   227.1861
     12  C    Isotropic =   202.1771   Anisotropy =    39.6937
   XX=   191.0383   YX=    -9.4602   ZX=    -0.6582
   XY=   -10.7057   YY=   221.4338   ZY=   -12.4618
   XZ=    -0.5848   YZ=   -12.8221   ZZ=   194.0591
   Eigenvalues:   184.8140   193.0777   228.6395
     13  N    Isotropic =   292.8225   Anisotropy =    47.7324
   XX=   322.7008   YX=     4.5763   ZX=     2.0923
   XY=     3.0094   YY=   316.7925   ZY=   -16.1310
   XZ=     0.1044   YZ=    -0.5149   ZZ=   238.9742
   Eigenvalues:   238.0677   315.7557   324.6441
     14  C    Isotropic =   193.0490   Anisotropy =    41.0894
   XX=   207.0011   YX=    14.6163   ZX=    -1.0818
   XY=    17.6763   YY=   201.0426   ZY=    -0.8884
   XZ=     6.8891   YZ=    -5.3189   ZZ=   171.1032
   Eigenvalues:   170.0749   188.6301   220.4419
     15  C    Isotropic =   213.1260   Anisotropy =    27.3957
   XX=   223.7426   YX=    -7.0347   ZX=     2.1407
   XY=    -8.3497   YY=   217.5297   ZY=   -11.1280
   XZ=     0.2159   YZ=   -14.9744   ZZ=   198.1057
   Eigenvalues:   191.3618   216.6264   231.3898
     16  C    Isotropic =   215.6888   Anisotropy =    20.9556
   XX=   228.0763   YX=     1.3606   ZX=    -1.6099
   XY=     1.4309   YY=   224.3871   ZY=    -9.3225
   XZ=    -2.0756   YZ=   -10.4936   ZZ=   194.6031
   Eigenvalues:   191.5574   225.8499   229.6592
     17  C    Isotropic =   199.1395   Anisotropy =    48.5507
   XX=   217.7748   YX=   -17.4152   ZX=    -2.6268
   XY=   -22.5390   YY=   202.2903   ZY=    -4.1477
   XZ=    -7.6305   YZ=    -5.1058   ZZ=   177.3536
   Eigenvalues:   174.1819   191.7301   231.5067
     18  O    Isotropic =  -338.2919   Anisotropy =  1245.9452
   XX=  -395.3488   YX=   170.0270   ZX=   -37.3147
   XY=   124.3339   YY=  -943.4112   ZY=  -462.1461
   XZ=   -31.2556   YZ=  -497.8306   ZZ=   323.8842
   Eigenvalues: -1127.3950  -379.8189   492.3382
     19  C    Isotropic =   218.3190   Anisotropy =    23.1272
   XX=   215.6799   YX=    -0.4122   ZX=     0.0411
   XY=     0.1868   YY=   233.3171   ZY=     3.3362
   XZ=    -0.8955   YZ=     3.4829   ZZ=   205.9599
   Eigenvalues:   205.5248   215.6950   233.7371
     20  H    Isotropic =    31.0851   Anisotropy =     8.3892
   XX=    30.5169   YX=    -1.2743   ZX=    -3.0028
   XY=    -2.3899   YY=    26.4054   ZY=    -2.2731
   XZ=     0.2497   YZ=     0.2492   ZZ=    36.3331
   Eigenvalues:    25.5143    31.0631    36.6780
     21  H    Isotropic =    31.5431   Anisotropy =     6.2138
   XX=    31.7126   YX=     0.1640   ZX=     1.5197
   XY=     0.0308   YY=    27.5199   ZY=     0.5231
   XZ=    -0.3153   YZ=    -3.0927   ZZ=    35.3967
   Eigenvalues:    27.3073    31.6364    35.6856
     22  H    Isotropic =    32.3278   Anisotropy =     6.8382
   XX=    31.0629   YX=    -0.7200   ZX=     2.3029
   XY=    -0.9073   YY=    30.5147   ZY=     3.2833
   XZ=    -0.3092   YZ=     2.7223   ZZ=    35.4057
   Eigenvalues:    28.5431    31.5537    36.8866
     23  H    Isotropic =    25.9070   Anisotropy =     6.0109
   XX=    28.3844   YX=    -1.5497   ZX=    -0.4537
   XY=    -1.5337   YY=    28.1127   ZY=     1.0233
   XZ=    -0.3389   YZ=     1.0966   ZZ=    21.2240
   Eigenvalues:    21.0608    26.7461    29.9143
     24  H    Isotropic =    25.2825   Anisotropy =     3.6580
   XX=    27.1766   YX=     0.3349   ZX=    -0.2124
   XY=     0.6822   YY=    27.1743   ZY=     0.8025
   XZ=    -0.0137   YZ=     0.7440   ZZ=    21.4966
   Eigenvalues:    21.3876    26.7388    27.7212
     25  H    Isotropic =    25.6887   Anisotropy =     7.1172
   XX=    29.8330   YX=    -1.4900   ZX=    -0.7313
   XY=    -1.1021   YY=    26.9333   ZY=     1.0594
   XZ=    -0.5543   YZ=     1.3207   ZZ=    20.2998
   Eigenvalues:    20.0750    26.5576    30.4335
     26  H    Isotropic =    31.2421   Anisotropy =    12.0064
   XX=    28.9718   YX=     0.4976   ZX=    -0.2615
   XY=     0.0632   YY=    30.7991   ZY=     6.6562
   XZ=     0.3102   YZ=     6.7071   ZZ=    33.9554
   Eigenvalues:    25.4996    28.9803    39.2464
     27  H    Isotropic =    31.6206   Anisotropy =    15.0091
   XX=    29.3433   YX=    -1.3089   ZX=     0.2434
   XY=    -1.6129   YY=    39.4836   ZY=    -4.8332
   XZ=    -0.0635   YZ=    -6.2276   ZZ=    26.0349
   Eigenvalues:    24.0208    29.2143    41.6267
     28  H    Isotropic =    31.4877   Anisotropy =    14.1063
   XX=    34.8459   YX=     5.4309   ZX=     0.6016
   XY=     5.8296   YY=    35.6094   ZY=     0.7954
   XZ=     0.4328   YZ=    -0.1288   ZZ=    24.0078
   Eigenvalues:    23.9827    29.5885    40.8919
     29  H    Isotropic =    32.6605   Anisotropy =    10.4655
   XX=    30.3344   YX=    -0.3822   ZX=    -2.6019
   XY=    -0.7785   YY=    29.8335   ZY=    -2.9975
   XZ=    -3.5951   YZ=    -2.9511   ZZ=    37.8138
   Eigenvalues:    27.6705    30.6736    39.6375
     30  H    Isotropic =    31.8303   Anisotropy =    11.3081
   XX=    30.1780   YX=    -0.5030   ZX=    -3.1126
   XY=    -1.3697   YY=    28.1990   ZY=    -4.6218
   XZ=    -1.7589   YZ=    -4.3185   ZZ=    37.1139
   Eigenvalues:    25.5943    30.5277    39.3690
     31  H    Isotropic =    31.3384   Anisotropy =    15.2022
   XX=    30.1091   YX=     4.0097   ZX=     1.4499
   XY=     3.2666   YY=    39.6369   ZY=     2.8526
   XZ=     2.2053   YZ=     2.7171   ZZ=    24.2693
   Eigenvalues:    23.5379    29.0042    41.4732
     32  H    Isotropic =    31.9815   Anisotropy =    14.7983
   XX=    31.4564   YX=    -5.2138   ZX=    -3.6243
   XY=    -5.1718   YY=    35.9633   ZY=     4.3341
   XZ=    -3.6722   YZ=     4.6049   ZZ=    28.5248
   Eigenvalues:    25.9109    28.1866    41.8470
     33  H    Isotropic =    31.6977   Anisotropy =    15.1206
   XX=    32.7840   YX=    -2.3651   ZX=     6.6197
   XY=    -2.5413   YY=    28.3058   ZY=    -4.6090
   XZ=     6.5009   YZ=    -4.1861   ZZ=    34.0034
   Eigenvalues:    25.5696    27.7455    41.7781
     34  H    Isotropic =    31.5227   Anisotropy =    14.2200
   XX=    38.5533   YX=     3.9630   ZX=     4.7852
   XY=     3.0805   YY=    29.8475   ZY=     0.4531
   XZ=     3.6848   YZ=     0.8991   ZZ=    26.1674
   Eigenvalues:    24.8206    28.7449    41.0027
     35  H    Isotropic =    32.3615   Anisotropy =    11.3710
   XX=    32.1852   YX=    -1.3309   ZX=    -5.8466
   XY=    -1.3139   YY=    29.5069   ZY=    -0.5329
   XZ=    -6.0331   YZ=    -1.2571   ZZ=    35.3922
   Eigenvalues:    26.7232    30.4191    39.9421
     36  H    Isotropic =    31.3111   Anisotropy =    10.0370
   XX=    31.4590   YX=    -2.1077   ZX=     3.6512
   XY=    -1.2203   YY=    33.6839   ZY=    -2.9884
   XZ=     2.4772   YZ=    -6.4613   ZZ=    28.7902
   Eigenvalues:    25.3376    30.5932    38.0024
     37  H    Isotropic =    31.0112   Anisotropy =    12.3006
   XX=    36.8867   YX=     3.6135   ZX=    -0.2943
   XY=     4.4514   YY=    32.2173   ZY=     0.8055
   XZ=    -0.4759   YZ=     0.4146   ZZ=    23.9296
   Eigenvalues:    23.8436    29.9783    39.2116
     38  H    Isotropic =    30.7412   Anisotropy =    11.0846
   XX=    29.8096   YX=    -0.8104   ZX=    -3.3035
   XY=    -0.7403   YY=    30.3379   ZY=     4.3372
   XZ=    -3.1578   YZ=     7.2368   ZZ=    32.0762
   Eigenvalues:    24.8152    29.2775    38.1310
 End of Minotr F.D. properties file   721 does not exist.
 End of Minotr F.D. properties file   722 does not exist.
 End of Minotr F.D. properties file   788 does not exist.

 **********************************************************************

            Population analysis using the SCF Density.

 **********************************************************************

 Orbital symmetries:
       Occupied  (A) (A) (A) (A) (A) (A) (A) (A) (A) (A) (A) (A)
                 (A) (A) (A) (A) (A) (A) (A) (A) (A) (A) (A) (A)
                 (A) (A) (A) (A) (A) (A) (A) (A) (A) (A) (A) (A)
                 (A) (A) (A) (A) (A) (A) (A) (A) (A) (A) (A) (A)
                 (A) (A) (A) (A) (A) (A) (A) (A) (A) (A) (A) (A)
                 (A) (A) (A) (A) (A) (A) (A) (A) (A)
       Virtual   (A) (A) (A) (A) (A) (A) (A) (A) (A) (A) (A) (A)
                 (A) (A) (A) (A) (A) (A) (A) (A) (A) (A) (A) (A)
                 (A) (A) (A) (A) (A) (A) (A) (A) (A) (A) (A) (A)
                 (A) (A) (A) (A) (A) (A) (A) (A) (A)
 The electronic state is 1-A.
 Alpha  occ. eigenvalues --  -20.29880 -20.26335 -15.31346 -11.11458 -11.11217
 Alpha  occ. eigenvalues --  -11.09652 -11.07965 -11.07800 -11.06817 -11.06275
 Alpha  occ. eigenvalues --  -11.05168 -11.05147 -11.04329 -11.03938 -11.03875
 Alpha  occ. eigenvalues --  -11.03822 -11.02720 -11.02134 -11.01805  -1.34323
 Alpha  occ. eigenvalues --   -1.31628  -1.20322  -1.09691  -1.05112  -1.02858
 Alpha  occ. eigenvalues --   -0.99092  -0.97679  -0.94787  -0.91961  -0.88138
 Alpha  occ. eigenvalues --   -0.83793  -0.79980  -0.77037  -0.74769  -0.74067
 Alpha  occ. eigenvalues --   -0.73974  -0.69858  -0.64434  -0.63152  -0.62332
 Alpha  occ. eigenvalues --   -0.61205  -0.60262  -0.58537  -0.57577  -0.56588
 Alpha  occ. eigenvalues --   -0.54939  -0.54612  -0.53122  -0.52668  -0.51356
 Alpha  occ. eigenvalues --   -0.50306  -0.49689  -0.49419  -0.47845  -0.47172
 Alpha  occ. eigenvalues --   -0.45765  -0.45056  -0.44369  -0.43397  -0.43228
 Alpha  occ. eigenvalues --   -0.42500  -0.41609  -0.41036  -0.38991  -0.36344
 Alpha  occ. eigenvalues --   -0.31251  -0.29002  -0.27305  -0.24403
 Alpha virt. eigenvalues --    0.21468   0.26974   0.34645   0.49509   0.51051
 Alpha virt. eigenvalues --    0.52681   0.55358   0.56935   0.57749   0.58605
 Alpha virt. eigenvalues --    0.60519   0.62922   0.63662   0.64738   0.65353
 Alpha virt. eigenvalues --    0.65881   0.66921   0.68687   0.69547   0.70193
 Alpha virt. eigenvalues --    0.70975   0.71514   0.72528   0.73088   0.73612
 Alpha virt. eigenvalues --    0.73845   0.74450   0.75125   0.75686   0.76722
 Alpha virt. eigenvalues --    0.77663   0.77742   0.78687   0.78908   0.81050
 Alpha virt. eigenvalues --    0.83089   0.84954   0.86351   0.86891   0.88121
 Alpha virt. eigenvalues --    0.89996   0.93573   1.01108   1.12053   1.13523
          Condensed to atoms (all electrons):
               1          2          3          4          5          6
     1  C    4.757732   0.505371  -0.028710  -0.009913  -0.027510   0.497593
     2  C    0.505371   4.807669   0.504182  -0.031375  -0.011260  -0.031416
     3  C   -0.028710   0.504182   4.759114   0.508925  -0.029256  -0.009653
     4  C   -0.009913  -0.031375   0.508925   4.806425   0.499208  -0.031798
     5  C   -0.027510  -0.011260  -0.029256   0.499208   4.754877   0.488855
     6  C    0.497593  -0.031416  -0.009653  -0.031798   0.488855   4.876622
     7  C   -0.023410   0.000770   0.000019   0.000805  -0.029968   0.388754
     8  O    0.000237   0.000008   0.000346  -0.026931   0.293755  -0.016441
     9  C    0.000028   0.000000  -0.000019   0.001708  -0.040143  -0.007449
    10  C    0.000630  -0.000007  -0.000000  -0.000031  -0.005020  -0.036134
    11  C    0.000000   0.000000   0.000000  -0.000013   0.001524  -0.000002
    12  C   -0.000000  -0.000000  -0.000000   0.000000  -0.000013  -0.000000
    13  N    0.000000  -0.000000  -0.000000  -0.000000  -0.000000  -0.000002
    14  C   -0.000004   0.000000  -0.000000   0.000000   0.000020   0.000631
    15  C   -0.000000   0.000000   0.000000  -0.000000  -0.000000  -0.000000
    16  C   -0.000000   0.000000  -0.000000   0.000000   0.000000   0.000000
    17  C   -0.000000   0.000000  -0.000000   0.000000  -0.000000   0.000000
    18  O   -0.000967  -0.000004  -0.000000  -0.000002   0.000323  -0.027373
    19  C    0.381550  -0.030031   0.000875   0.000011   0.000709  -0.024184
    20  H   -0.000013   0.000000   0.000000  -0.000010   0.000041  -0.000458
    21  H   -0.000013  -0.000001   0.000001   0.000063  -0.002822   0.000692
    22  H   -0.000000   0.000000  -0.000000   0.000000   0.000001   0.000020
    23  H   -0.025091   0.394133  -0.026800   0.001415   0.000049   0.001268
    24  H    0.001320  -0.024830   0.393576  -0.025152   0.001371   0.000010
    25  H    0.000036   0.001375  -0.024600   0.393411  -0.025321   0.001232
    26  H    0.000000  -0.000000   0.000000  -0.000001   0.000027  -0.000000
    27  H   -0.000000  -0.000000   0.000000  -0.000000   0.000004   0.000000
    28  H    0.000000  -0.000000   0.000000  -0.000000   0.000000  -0.000000
    29  H    0.000000   0.000000   0.000000  -0.000000  -0.000000  -0.000000
    30  H    0.000000  -0.000000   0.000000  -0.000000  -0.000000  -0.000002
    31  H   -0.000000   0.000000   0.000000   0.000000  -0.000000   0.000002
    32  H    0.000000  -0.000000   0.000000  -0.000000  -0.000000  -0.000000
    33  H    0.000000  -0.000000   0.000000  -0.000000  -0.000000  -0.000000
    34  H    0.000000  -0.000000  -0.000000  -0.000000  -0.000000  -0.000000
    35  H    0.000000  -0.000000   0.000000  -0.000000   0.000000  -0.000000
    36  H   -0.021130   0.000798  -0.000024   0.000002   0.000001  -0.002047
    37  H   -0.020524  -0.005592   0.000060  -0.000000  -0.000016   0.001136
    38  H   -0.021185   0.000631  -0.000023   0.000002  -0.000001  -0.001686
               7          8          9         10         11         12
     1  C   -0.023410   0.000237   0.000028   0.000630   0.000000  -0.000000
     2  C    0.000770   0.000008   0.000000  -0.000007   0.000000  -0.000000
     3  C    0.000019   0.000346  -0.000019  -0.000000   0.000000  -0.000000
     4  C    0.000805  -0.026931   0.001708  -0.000031  -0.000013   0.000000
     5  C   -0.029968   0.293755  -0.040143  -0.005020   0.001524  -0.000013
     6  C    0.388754  -0.016441  -0.007449  -0.036134  -0.000002  -0.000000
     7  C    4.773032  -0.001640  -0.027473   0.356869   0.000798  -0.000003
     8  O   -0.001640   7.792134   0.262831  -0.017130  -0.018106   0.000234
     9  C   -0.027473   0.262831   4.744962   0.355483   0.360673  -0.020755
    10  C    0.356869  -0.017130   0.355483   4.818824  -0.023388  -0.002585
    11  C    0.000798  -0.018106   0.360673  -0.023388   4.754820   0.362285
    12  C   -0.000003   0.000234  -0.020755  -0.002585   0.362285   4.699155
    13  N    0.000450   0.000000  -0.003289  -0.022102  -0.023949   0.330164
    14  C   -0.020793   0.000246  -0.021978   0.363886  -0.004069  -0.033781
    15  C   -0.000791  -0.000001   0.000673  -0.018402   0.000009   0.001476
    16  C   -0.000000   0.000000  -0.000010   0.000861  -0.000015   0.001416
    17  C   -0.000010   0.000000   0.000028   0.001258   0.001132  -0.032079
    18  O    0.432713  -0.000000   0.000262  -0.025323  -0.000001  -0.000000
    19  C   -0.002654  -0.000001  -0.000000   0.000008  -0.000000   0.000000
    20  H   -0.023654  -0.000825  -0.020734   0.379431  -0.001516   0.000106
    21  H   -0.003335  -0.018404   0.375674  -0.025709  -0.025754  -0.001091
    22  H   -0.002353  -0.000001  -0.001757  -0.026259  -0.000087  -0.003076
    23  H   -0.000014   0.000000  -0.000000   0.000000   0.000000  -0.000000
    24  H    0.000001  -0.000005   0.000000  -0.000000  -0.000000   0.000000
    25  H   -0.000019  -0.001090   0.000032   0.000000  -0.000002   0.000000
    26  H   -0.000002  -0.000799  -0.022275  -0.001572   0.381116  -0.020591
    27  H   -0.000019  -0.000351  -0.021333   0.001227   0.381464  -0.020203
    28  H    0.000001  -0.000004   0.001192  -0.000002  -0.020565   0.383190
    29  H   -0.000002  -0.000001  -0.001689  -0.000076  -0.024529   0.376534
    30  H    0.000028  -0.000000   0.000022  -0.003616   0.000001  -0.000004
    31  H   -0.000069   0.000000  -0.000008   0.000198  -0.000001  -0.000031
    32  H   -0.000000  -0.000000   0.000000  -0.000010   0.000000  -0.000033
    33  H   -0.000000  -0.000000   0.000000  -0.000020   0.000000  -0.000016
    34  H    0.000000   0.000000  -0.000001  -0.000020   0.000004  -0.000300
    35  H    0.000000  -0.000000  -0.000000  -0.000022  -0.000005  -0.003844
    36  H   -0.000110  -0.000000  -0.000000  -0.000002   0.000000   0.000000
    37  H    0.000017   0.000000   0.000000   0.000000   0.000000  -0.000000
    38  H   -0.000038  -0.000000  -0.000000  -0.000003  -0.000000   0.000000
              13         14         15         16         17         18
     1  C    0.000000  -0.000004  -0.000000  -0.000000  -0.000000  -0.000967
     2  C   -0.000000   0.000000   0.000000   0.000000   0.000000  -0.000004
     3  C   -0.000000  -0.000000   0.000000  -0.000000  -0.000000  -0.000000
     4  C   -0.000000   0.000000  -0.000000   0.000000   0.000000  -0.000002
     5  C   -0.000000   0.000020  -0.000000   0.000000  -0.000000   0.000323
     6  C   -0.000002   0.000631  -0.000000   0.000000   0.000000  -0.027373
     7  C    0.000450  -0.020793  -0.000791  -0.000000  -0.000010   0.432713
     8  O    0.000000   0.000246  -0.000001   0.000000   0.000000  -0.000000
     9  C   -0.003289  -0.021978   0.000673  -0.000010   0.000028   0.000262
    10  C   -0.022102   0.363886  -0.018402   0.000861   0.001258  -0.025323
    11  C   -0.023949  -0.004069   0.000009  -0.000015   0.001132  -0.000001
    12  C    0.330164  -0.033781   0.001476   0.001416  -0.032079  -0.000000
    13  N    6.516611   0.327999  -0.036251  -0.032473   0.333258  -0.000000
    14  C    0.327999   4.733659   0.366122  -0.033549  -0.047722  -0.001215
    15  C   -0.036251   0.366122   4.757467   0.360848  -0.031089  -0.000478
    16  C   -0.032473  -0.033549   0.360848   4.757716   0.363007   0.000002
    17  C    0.333258  -0.047722  -0.031089   0.363007   4.715913  -0.000000
    18  O   -0.000000  -0.001215  -0.000478   0.000002  -0.000000   7.855970
    19  C    0.000000  -0.000000   0.000000  -0.000000  -0.000000  -0.001469
    20  H   -0.000765  -0.020444  -0.002759   0.000024   0.000019   0.000018
    21  H    0.000068  -0.001234  -0.000007   0.000000  -0.000005   0.000004
    22  H   -0.022243   0.377429  -0.024858  -0.000657  -0.002300   0.000306
    23  H    0.000000  -0.000000   0.000000  -0.000000  -0.000000   0.000000
    24  H   -0.000000   0.000000  -0.000000   0.000000   0.000000  -0.000000
    25  H    0.000000  -0.000000  -0.000000  -0.000000   0.000000   0.000000
    26  H   -0.001033   0.000099  -0.000006  -0.000000   0.000011  -0.000000
    27  H    0.000938   0.000009   0.000001   0.000000  -0.000023   0.000000
    28  H   -0.020166   0.001777  -0.000032   0.000007  -0.002259  -0.000000
    29  H   -0.022291  -0.003082  -0.000004  -0.000007  -0.002463  -0.000000
    30  H   -0.000408  -0.021148   0.383958  -0.021527   0.000894   0.000010
    31  H    0.001161  -0.019568   0.384022  -0.020265   0.001275   0.000108
    32  H    0.001047   0.000836  -0.020919   0.384097  -0.021506   0.000000
    33  H    0.000518   0.001364  -0.021206   0.384861  -0.020766  -0.000000
    34  H   -0.020953   0.002005   0.001283  -0.019380   0.383565   0.000000
    35  H   -0.021586  -0.001600   0.000520  -0.023218   0.378579  -0.000000
    36  H   -0.000000  -0.000000  -0.000000   0.000000   0.000000  -0.000151
    37  H    0.000000  -0.000000   0.000000  -0.000000  -0.000000   0.000056
    38  H   -0.000000   0.000000   0.000000   0.000000   0.000000  -0.000469
              19         20         21         22         23         24
     1  C    0.381550  -0.000013  -0.000013  -0.000000  -0.025091   0.001320
     2  C   -0.030031   0.000000  -0.000001   0.000000   0.394133  -0.024830
     3  C    0.000875   0.000000   0.000001  -0.000000  -0.026800   0.393576
     4  C    0.000011  -0.000010   0.000063   0.000000   0.001415  -0.025152
     5  C    0.000709   0.000041  -0.002822   0.000001   0.000049   0.001371
     6  C   -0.024184  -0.000458   0.000692   0.000020   0.001268   0.000010
     7  C   -0.002654  -0.023654  -0.003335  -0.002353  -0.000014   0.000001
     8  O   -0.000001  -0.000825  -0.018404  -0.000001   0.000000  -0.000005
     9  C   -0.000000  -0.020734   0.375674  -0.001757  -0.000000   0.000000
    10  C    0.000008   0.379431  -0.025709  -0.026259   0.000000  -0.000000
    11  C   -0.000000  -0.001516  -0.025754  -0.000087   0.000000  -0.000000
    12  C    0.000000   0.000106  -0.001091  -0.003076  -0.000000   0.000000
    13  N    0.000000  -0.000765   0.000068  -0.022243   0.000000  -0.000000
    14  C   -0.000000  -0.020444  -0.001234   0.377429  -0.000000   0.000000
    15  C    0.000000  -0.002759  -0.000007  -0.024858   0.000000  -0.000000
    16  C   -0.000000   0.000024   0.000000  -0.000657  -0.000000   0.000000
    17  C   -0.000000   0.000019  -0.000005  -0.002300  -0.000000   0.000000
    18  O   -0.001469   0.000018   0.000004   0.000306   0.000000  -0.000000
    19  C    4.713214   0.000000  -0.000000  -0.000000  -0.004211  -0.000016
    20  H    0.000000   0.610367   0.001738   0.001700  -0.000000  -0.000000
    21  H   -0.000000   0.001738   0.648516   0.000291  -0.000000   0.000000
    22  H   -0.000000   0.001700   0.000291   0.660653  -0.000000   0.000000
    23  H   -0.004211  -0.000000  -0.000000  -0.000000   0.605620  -0.003746
    24  H   -0.000016  -0.000000   0.000000   0.000000  -0.003746   0.594330
    25  H    0.000000  -0.000000   0.000000  -0.000000  -0.000032  -0.003713
    26  H   -0.000000   0.000197   0.001863   0.000006   0.000000  -0.000000
    27  H   -0.000000  -0.000001  -0.003261  -0.000005  -0.000000  -0.000000
    28  H   -0.000000  -0.000009  -0.000009  -0.000028   0.000000  -0.000000
    29  H    0.000000   0.000004   0.000352   0.001640   0.000000  -0.000000
    30  H    0.000000   0.000401  -0.000001   0.001743   0.000000  -0.000000
    31  H    0.000000   0.000022   0.000001  -0.003780  -0.000000   0.000000
    32  H    0.000000  -0.000001  -0.000000   0.000061   0.000000  -0.000000
    33  H    0.000000  -0.000001   0.000000  -0.000017   0.000000  -0.000000
    34  H    0.000000   0.000000   0.000000  -0.000058   0.000000  -0.000000
    35  H    0.000000  -0.000001   0.000000   0.001171   0.000000  -0.000000
    36  H    0.380554   0.000001  -0.000000   0.000000   0.000065   0.000000
    37  H    0.382838  -0.000000  -0.000000  -0.000000   0.000180  -0.000003
    38  H    0.380797  -0.000000   0.000000  -0.000000   0.000074   0.000000
              25         26         27         28         29         30
     1  C    0.000036   0.000000  -0.000000   0.000000   0.000000   0.000000
     2  C    0.001375  -0.000000  -0.000000  -0.000000   0.000000  -0.000000
     3  C   -0.024600   0.000000   0.000000   0.000000   0.000000   0.000000
     4  C    0.393411  -0.000001  -0.000000  -0.000000  -0.000000  -0.000000
     5  C   -0.025321   0.000027   0.000004   0.000000  -0.000000  -0.000000
     6  C    0.001232  -0.000000   0.000000  -0.000000  -0.000000  -0.000002
     7  C   -0.000019  -0.000002  -0.000019   0.000001  -0.000002   0.000028
     8  O   -0.001090  -0.000799  -0.000351  -0.000004  -0.000001  -0.000000
     9  C    0.000032  -0.022275  -0.021333   0.001192  -0.001689   0.000022
    10  C    0.000000  -0.001572   0.001227  -0.000002  -0.000076  -0.003616
    11  C   -0.000002   0.381116   0.381464  -0.020565  -0.024529   0.000001
    12  C    0.000000  -0.020591  -0.020203   0.383190   0.376534  -0.000004
    13  N    0.000000  -0.001033   0.000938  -0.020166  -0.022291  -0.000408
    14  C   -0.000000   0.000099   0.000009   0.001777  -0.003082  -0.021148
    15  C   -0.000000  -0.000006   0.000001  -0.000032  -0.000004   0.383958
    16  C   -0.000000  -0.000000   0.000000   0.000007  -0.000007  -0.021527
    17  C    0.000000   0.000011  -0.000023  -0.002259  -0.002463   0.000894
    18  O    0.000000  -0.000000   0.000000  -0.000000  -0.000000   0.000010
    19  C    0.000000  -0.000000  -0.000000  -0.000000   0.000000   0.000000
    20  H   -0.000000   0.000197  -0.000001  -0.000009   0.000004   0.000401
    21  H    0.000000   0.001863  -0.003261  -0.000009   0.000352  -0.000001
    22  H   -0.000000   0.000006  -0.000005  -0.000028   0.001640   0.001743
    23  H   -0.000032   0.000000  -0.000000   0.000000   0.000000   0.000000
    24  H   -0.003713  -0.000000  -0.000000  -0.000000  -0.000000  -0.000000
    25  H    0.589442  -0.000000  -0.000000  -0.000000  -0.000000   0.000000
    26  H   -0.000000   0.619145  -0.023383  -0.003076   0.001823  -0.000001
    27  H   -0.000000  -0.023383   0.627434  -0.001583  -0.002263  -0.000000
    28  H   -0.000000  -0.003076  -0.001583   0.622145  -0.025507   0.000001
    29  H   -0.000000   0.001823  -0.002263  -0.025507   0.658316  -0.000002
    30  H    0.000000  -0.000001  -0.000000   0.000001  -0.000002   0.630872
    31  H   -0.000000   0.000000  -0.000000   0.000001   0.000001  -0.023119
    32  H   -0.000000   0.000000  -0.000000  -0.000001   0.000002   0.001682
    33  H    0.000000  -0.000000  -0.000000  -0.000000  -0.000001  -0.006822
    34  H    0.000000   0.000002  -0.000000   0.000407  -0.000175  -0.000038
    35  H   -0.000000  -0.000001   0.000000  -0.000302   0.001747  -0.000029
    36  H   -0.000000  -0.000000  -0.000000   0.000000  -0.000000   0.000000
    37  H    0.000000   0.000000  -0.000000   0.000000   0.000000  -0.000000
    38  H   -0.000000   0.000000   0.000000  -0.000000   0.000000  -0.000000
              31         32         33         34         35         36
     1  C   -0.000000   0.000000   0.000000   0.000000   0.000000  -0.021130
     2  C    0.000000  -0.000000  -0.000000  -0.000000  -0.000000   0.000798
     3  C    0.000000   0.000000   0.000000  -0.000000   0.000000  -0.000024
     4  C    0.000000  -0.000000  -0.000000  -0.000000  -0.000000   0.000002
     5  C   -0.000000  -0.000000  -0.000000  -0.000000   0.000000   0.000001
     6  C    0.000002  -0.000000  -0.000000  -0.000000  -0.000000  -0.002047
     7  C   -0.000069  -0.000000  -0.000000   0.000000   0.000000  -0.000110
     8  O    0.000000  -0.000000  -0.000000   0.000000  -0.000000  -0.000000
     9  C   -0.000008   0.000000   0.000000  -0.000001  -0.000000  -0.000000
    10  C    0.000198  -0.000010  -0.000020  -0.000020  -0.000022  -0.000002
    11  C   -0.000001   0.000000   0.000000   0.000004  -0.000005   0.000000
    12  C   -0.000031  -0.000033  -0.000016  -0.000300  -0.003844   0.000000
    13  N    0.001161   0.001047   0.000518  -0.020953  -0.021586  -0.000000
    14  C   -0.019568   0.000836   0.001364   0.002005  -0.001600  -0.000000
    15  C    0.384022  -0.020919  -0.021206   0.001283   0.000520  -0.000000
    16  C   -0.020265   0.384097   0.384861  -0.019380  -0.023218   0.000000
    17  C    0.001275  -0.021506  -0.020766   0.383565   0.378579   0.000000
    18  O    0.000108   0.000000  -0.000000   0.000000  -0.000000  -0.000151
    19  C    0.000000   0.000000   0.000000   0.000000   0.000000   0.380554
    20  H    0.000022  -0.000001  -0.000001   0.000000  -0.000001   0.000001
    21  H    0.000001  -0.000000   0.000000   0.000000   0.000000  -0.000000
    22  H   -0.003780   0.000061  -0.000017  -0.000058   0.001171   0.000000
    23  H   -0.000000   0.000000   0.000000   0.000000   0.000000   0.000065
    24  H    0.000000  -0.000000  -0.000000  -0.000000  -0.000000   0.000000
    25  H   -0.000000  -0.000000   0.000000   0.000000  -0.000000  -0.000000
    26  H    0.000000   0.000000  -0.000000   0.000002  -0.000001  -0.000000
    27  H   -0.000000  -0.000000  -0.000000  -0.000000   0.000000  -0.000000
    28  H    0.000001  -0.000001  -0.000000   0.000407  -0.000302   0.000000
    29  H    0.000001   0.000002  -0.000001  -0.000175   0.001747  -0.000000
    30  H   -0.023119   0.001682  -0.006822  -0.000038  -0.000029   0.000000
    31  H    0.619362  -0.005832   0.001194  -0.000021  -0.000015   0.000000
    32  H   -0.005832   0.635001  -0.023350   0.001118  -0.005995   0.000000
    33  H    0.001194  -0.023350   0.630256  -0.005424   0.001693  -0.000000
    34  H   -0.000021   0.001118  -0.005424   0.624504  -0.026750   0.000000
    35  H   -0.000015  -0.005995   0.001693  -0.026750   0.657442   0.000000
    36  H    0.000000   0.000000  -0.000000   0.000000   0.000000   0.609361
    37  H   -0.000000  -0.000000   0.000000   0.000000   0.000000  -0.022016
    38  H    0.000000   0.000000  -0.000000  -0.000000  -0.000000  -0.018487
              37         38
     1  C   -0.020524  -0.021185
     2  C   -0.005592   0.000631
     3  C    0.000060  -0.000023
     4  C   -0.000000   0.000002
     5  C   -0.000016  -0.000001
     6  C    0.001136  -0.001686
     7  C    0.000017  -0.000038
     8  O    0.000000  -0.000000
     9  C    0.000000  -0.000000
    10  C    0.000000  -0.000003
    11  C    0.000000  -0.000000
    12  C   -0.000000   0.000000
    13  N    0.000000  -0.000000
    14  C   -0.000000   0.000000
    15  C    0.000000   0.000000
    16  C   -0.000000   0.000000
    17  C   -0.000000   0.000000
    18  O    0.000056  -0.000469
    19  C    0.382838   0.380797
    20  H   -0.000000  -0.000000
    21  H   -0.000000   0.000000
    22  H   -0.000000  -0.000000
    23  H    0.000180   0.000074
    24  H   -0.000003   0.000000
    25  H    0.000000  -0.000000
    26  H    0.000000   0.000000
    27  H   -0.000000   0.000000
    28  H    0.000000  -0.000000
    29  H    0.000000   0.000000
    30  H   -0.000000  -0.000000
    31  H   -0.000000   0.000000
    32  H   -0.000000   0.000000
    33  H    0.000000  -0.000000
    34  H    0.000000  -0.000000
    35  H    0.000000  -0.000000
    36  H   -0.022016  -0.018487
    37  H    0.624366  -0.021836
    38  H   -0.021836   0.605044
 Mulliken charges:
               1
     1  C    0.033972
     2  C   -0.080421
     3  C   -0.048014
     4  C   -0.086748
     5  C    0.130565
     6  C   -0.068168
     7  C    0.182100
     8  O   -0.248059
     9  C    0.085344
    10  C   -0.071240
    11  C   -0.101825
    12  C   -0.016154
    13  N   -0.284704
    14  C    0.054103
    15  C   -0.099574
    16  C   -0.101739
    17  C   -0.018717
    18  O   -0.232323
    19  C   -0.177990
    20  H    0.077120
    21  H    0.052382
    22  H    0.042459
    23  H    0.057091
    24  H    0.066857
    25  H    0.069247
    26  H    0.068452
    27  H    0.061348
    28  H    0.064820
    29  H    0.041673
    30  H    0.057104
    31  H    0.065361
    32  H    0.053801
    33  H    0.057735
    34  H    0.060231
    35  H    0.042213
    36  H    0.073184
    37  H    0.061333
    38  H    0.077180
 Sum of Mulliken charges =  -0.00000
 Mulliken charges with hydrogens summed into heavy atoms:
               1
     1  C    0.033972
     2  C   -0.023330
     3  C    0.018843
     4  C   -0.017501
     5  C    0.130565
     6  C   -0.068168
     7  C    0.182100
     8  O   -0.248059
     9  C    0.137726
    10  C    0.005880
    11  C    0.027975
    12  C    0.090338
    13  N   -0.284704
    14  C    0.096562
    15  C    0.022891
    16  C    0.009798
    17  C    0.083728
    18  O   -0.232323
    19  C    0.033707
 Electronic spatial extent (au):  <R**2>=           5329.3644
 Charge=             -0.0000 electrons
 Dipole moment (field-independent basis, Debye):
    X=             -0.3242    Y=             -0.3880    Z=              0.7760  Tot=              0.9262
 Quadrupole moment (field-independent basis, Debye-Ang):
   XX=            -99.1144   YY=           -109.0268   ZZ=           -105.1266
   XY=              1.0894   XZ=             -2.5172   YZ=             -2.5155
 Traceless Quadrupole moment (field-independent basis, Debye-Ang):
   XX=              5.3082   YY=             -4.6042   ZZ=             -0.7040
   XY=              1.0894   XZ=             -2.5172   YZ=             -2.5155
 Octapole moment (field-independent basis, Debye-Ang**2):
  XXX=             13.6849  YYY=             -7.2326  ZZZ=              1.6689  XYY=             -1.4285
  XXY=              1.9149  XXZ=              5.6785  XZZ=             -5.3711  YZZ=              2.0602
  YYZ=             -0.7438  XYZ=              2.4308
 Hexadecapole moment (field-independent basis, Debye-Ang**3):
 XXXX=          -4876.8594 YYYY=          -1564.3009 ZZZZ=           -201.3575 XXXY=             -4.1226
 XXXZ=            -17.0529 YYYX=             10.8737 YYYZ=             -0.4167 ZZZX=              4.7009
 ZZZY=              7.1557 XXYY=          -1060.2322 XXZZ=           -901.8472 YYZZ=           -290.3769
 XXYZ=              7.9522 YYXZ=             -4.4990 ZZXY=             -1.1460
 N-N= 1.480518163656D+03 E-N=-4.856306480597D+03  KE= 8.035461758330D+02
 ******************************Gaussian NBO Version 3.1******************************
             N A T U R A L   A T O M I C   O R B I T A L   A N D
          N A T U R A L   B O N D   O R B I T A L   A N A L Y S I S
 ******************************Gaussian NBO Version 3.1******************************
       /RESON  / : Allow strongly delocalized NBO set
       /NLMO   / : Form Natural Localized Molecular Orbitals
       /NMR /    : Analyze NMR Sheilding Tensor 

 Analyzing the SCF density

 Job title: Title Card Required                                             

 Storage needed:     43472 in NPA,     53775 in NBO,    102144 in NLMO ( 104850000 available)
 GSVD:  LWork=      -13908 too small for GESVD, short by       66690 words or       66690 for optimal perf.


 NATURAL POPULATIONS:  Natural atomic orbital occupancies 
                                                          
   NAO  Atom  No  lang   Type(AO)    Occupancy      Energy
 ----------------------------------------------------------
     1    C    1  S      Cor( 1S)     1.99991     -10.98298
     2    C    1  S      Val( 2S)     1.08120      -0.19932
     3    C    1  px     Val( 2p)     0.96115       0.16019
     4    C    1  py     Val( 2p)     0.94850       0.15232
     5    C    1  pz     Val( 2p)     0.93366       0.02294

     6    C    2  S      Cor( 1S)     1.99995     -10.94565
     7    C    2  S      Val( 2S)     1.07989      -0.18437
     8    C    2  px     Val( 2p)     0.97218       0.15536
     9    C    2  py     Val( 2p)     0.97258       0.15395
    10    C    2  pz     Val( 2p)     1.05012      -0.00289

    11    C    3  S      Cor( 1S)     1.99994     -10.96305
    12    C    3  S      Val( 2S)     1.08021      -0.18824
    13    C    3  px     Val( 2p)     0.98372       0.14498
    14    C    3  py     Val( 2p)     0.98250       0.14562
    15    C    3  pz     Val( 2p)     0.96073       0.01186

    16    C    4  S      Cor( 1S)     1.99994     -10.94744
    17    C    4  S      Val( 2S)     1.07685      -0.18453
    18    C    4  px     Val( 2p)     0.97031       0.15294
    19    C    4  py     Val( 2p)     0.98992       0.14310
    20    C    4  pz     Val( 2p)     1.05946      -0.00774

    21    C    5  S      Cor( 1S)     1.99978     -11.03262
    22    C    5  S      Val( 2S)     1.06206      -0.21596
    23    C    5  px     Val( 2p)     0.87170       0.14323
    24    C    5  py     Val( 2p)     0.91858       0.15919
    25    C    5  pz     Val( 2p)     0.95935      -0.00942

    26    C    6  S      Cor( 1S)     1.99991     -10.95977
    27    C    6  S      Val( 2S)     1.08822      -0.20799
    28    C    6  px     Val( 2p)     0.97310       0.14193
    29    C    6  py     Val( 2p)     0.96619       0.14348
    30    C    6  pz     Val( 2p)     1.10308      -0.02169

    31    C    7  S      Cor( 1S)     1.99996     -11.05386
    32    C    7  S      Val( 2S)     1.07877      -0.24484
    33    C    7  px     Val( 2p)     0.94110       0.11053
    34    C    7  py     Val( 2p)     0.85160       0.16388
    35    C    7  pz     Val( 2p)     0.88899       0.00820

    36    O    8  S      Cor( 1S)     1.99999     -20.20880
    37    O    8  S      Val( 2S)     1.73374      -1.02038
    38    O    8  px     Val( 2p)     1.15862      -0.05992
    39    O    8  py     Val( 2p)     1.57302      -0.25336
    40    O    8  pz     Val( 2p)     1.78849      -0.33797

    41    C    9  S      Cor( 1S)     1.99988     -11.06090
    42    C    9  S      Val( 2S)     1.08717      -0.24285
    43    C    9  px     Val( 2p)     0.85387       0.08425
    44    C    9  py     Val( 2p)     0.94074       0.07168
    45    C    9  pz     Val( 2p)     0.96195       0.07118

    46    C   10  S      Cor( 1S)     1.99997     -11.00407
    47    C   10  S      Val( 2S)     1.10138      -0.23035
    48    C   10  px     Val( 2p)     0.98369       0.07331
    49    C   10  py     Val( 2p)     0.99102       0.06279
    50    C   10  pz     Val( 2p)     1.01394       0.07026

    51    C   11  S      Cor( 1S)     1.99996     -10.99028
    52    C   11  S      Val( 2S)     1.08834      -0.20728
    53    C   11  px     Val( 2p)     0.96761       0.08444
    54    C   11  py     Val( 2p)     0.99326       0.08022
    55    C   11  pz     Val( 2p)     1.03260       0.07136

    56    C   12  S      Cor( 1S)     1.99994     -11.01749
    57    C   12  S      Val( 2S)     1.07129      -0.20078
    58    C   12  px     Val( 2p)     0.99485       0.06702
    59    C   12  py     Val( 2p)     0.92259       0.09130
    60    C   12  pz     Val( 2p)     0.97300       0.09104

    61    N   13  S      Cor( 1S)     1.99999     -15.24594
    62    N   13  S      Val( 2S)     1.44614      -0.59848
    63    N   13  px     Val( 2p)     1.04457       0.03512
    64    N   13  py     Val( 2p)     1.06459       0.03505
    65    N   13  pz     Val( 2p)     1.71676      -0.22507

    66    C   14  S      Cor( 1S)     1.99994     -11.02337
    67    C   14  S      Val( 2S)     1.07954      -0.21079
    68    C   14  px     Val( 2p)     0.90901       0.10406
    69    C   14  py     Val( 2p)     0.92490       0.08938
    70    C   14  pz     Val( 2p)     0.98642       0.08995

    71    C   15  S      Cor( 1S)     1.99997     -10.97562
    72    C   15  S      Val( 2S)     1.08518      -0.19041
    73    C   15  px     Val( 2p)     0.97368       0.09075
    74    C   15  py     Val( 2p)     0.99577       0.09611
    75    C   15  pz     Val( 2p)     1.01450       0.09172

    76    C   16  S      Cor( 1S)     1.99997     -10.97697
    77    C   16  S      Val( 2S)     1.08323      -0.19081
    78    C   16  px     Val( 2p)     0.98290       0.09110
    79    C   16  py     Val( 2p)     0.98085       0.09434
    80    C   16  pz     Val( 2p)     1.01980       0.09012

    81    C   17  S      Cor( 1S)     1.99995     -11.00742
    82    C   17  S      Val( 2S)     1.07444      -0.19512
    83    C   17  px     Val( 2p)     0.92083       0.10541
    84    C   17  py     Val( 2p)     0.96490       0.07822
    85    C   17  pz     Val( 2p)     1.00448       0.08673

    86    O   18  S      Cor( 1S)     1.99999     -20.11253
    87    O   18  S      Val( 2S)     1.80467      -1.06133
    88    O   18  px     Val( 2p)     1.90103      -0.34607
    89    O   18  py     Val( 2p)     1.34382      -0.11710
    90    O   18  pz     Val( 2p)     1.19331      -0.11330

    91    C   19  S      Cor( 1S)     1.99997     -10.97591
    92    C   19  S      Val( 2S)     1.07789      -0.18623
    93    C   19  px     Val( 2p)     1.04256       0.07194
    94    C   19  py     Val( 2p)     0.98329       0.08517
    95    C   19  pz     Val( 2p)     1.04294       0.07246

    96    H   20  S      Val( 1S)     0.94428       0.05924

    97    H   21  S      Val( 1S)     0.98424       0.02926

    98    H   22  S      Val( 1S)     0.98831       0.04555

    99    H   23  S      Val( 1S)     0.96814       0.06784

   100    H   24  S      Val( 1S)     0.96131       0.06213

   101    H   25  S      Val( 1S)     0.95558       0.07459

   102    H   26  S      Val( 1S)     0.95348       0.07324

   103    H   27  S      Val( 1S)     0.96006       0.06528

   104    H   28  S      Val( 1S)     0.96178       0.06030

   105    H   29  S      Val( 1S)     0.98606       0.04897

   106    H   30  S      Val( 1S)     0.96359       0.07407

   107    H   31  S      Val( 1S)     0.95643       0.08157

   108    H   32  S      Val( 1S)     0.96678       0.06950

   109    H   33  S      Val( 1S)     0.96296       0.07365

   110    H   34  S      Val( 1S)     0.96653       0.06564

   111    H   35  S      Val( 1S)     0.98515       0.05497

   112    H   36  S      Val( 1S)     0.94293       0.08002

   113    H   37  S      Val( 1S)     0.95525       0.07403

   114    H   38  S      Val( 1S)     0.93929       0.08356


 Summary of Natural Population Analysis:                  
                                                          
                                       Natural Population 
                Natural  -----------------------------------------------
    Atom  No    Charge         Core      Valence    Rydberg      Total
 -----------------------------------------------------------------------
      C    1    0.07558      1.99991     3.92451    0.00000     5.92442
      C    2   -0.07473      1.99995     4.07478    0.00000     6.07473
      C    3   -0.00710      1.99994     4.00716    0.00000     6.00710
      C    4   -0.09648      1.99994     4.09654    0.00000     6.09648
      C    5    0.18853      1.99978     3.81169    0.00000     5.81147
      C    6   -0.13050      1.99991     4.13059    0.00000     6.13050
      C    7    0.23958      1.99996     3.76046    0.00000     5.76042
      O    8   -0.25387      1.99999     6.25387    0.00000     8.25387
      C    9    0.15639      1.99988     3.84373    0.00000     5.84361
      C   10   -0.09000      1.99997     4.09003    0.00000     6.09000
      C   11   -0.08177      1.99996     4.08181    0.00000     6.08177
      C   12    0.03832      1.99994     3.96174    0.00000     5.96168
      N   13   -0.27206      1.99999     5.27207    0.00000     7.27206
      C   14    0.10019      1.99994     3.89987    0.00000     5.89981
      C   15   -0.06910      1.99997     4.06913    0.00000     6.06910
      C   16   -0.06675      1.99997     4.06678    0.00000     6.06675
      C   17    0.03540      1.99995     3.96466    0.00000     5.96460
      O   18   -0.24283      1.99999     6.24284    0.00000     8.24283
      C   19   -0.14665      1.99997     4.14668    0.00000     6.14665
      H   20    0.05572      0.00000     0.94428    0.00000     0.94428
      H   21    0.01576      0.00000     0.98424    0.00000     0.98424
      H   22    0.01169      0.00000     0.98831    0.00000     0.98831
      H   23    0.03186      0.00000     0.96814    0.00000     0.96814
      H   24    0.03869      0.00000     0.96131    0.00000     0.96131
      H   25    0.04442      0.00000     0.95558    0.00000     0.95558
      H   26    0.04652      0.00000     0.95348    0.00000     0.95348
      H   27    0.03994      0.00000     0.96006    0.00000     0.96006
      H   28    0.03822      0.00000     0.96178    0.00000     0.96178
      H   29    0.01394      0.00000     0.98606    0.00000     0.98606
      H   30    0.03641      0.00000     0.96359    0.00000     0.96359
      H   31    0.04357      0.00000     0.95643    0.00000     0.95643
      H   32    0.03322      0.00000     0.96678    0.00000     0.96678
      H   33    0.03704      0.00000     0.96296    0.00000     0.96296
      H   34    0.03347      0.00000     0.96653    0.00000     0.96653
      H   35    0.01485      0.00000     0.98515    0.00000     0.98515
      H   36    0.05707      0.00000     0.94293    0.00000     0.94293
      H   37    0.04475      0.00000     0.95525    0.00000     0.95525
      H   38    0.06071      0.00000     0.93929    0.00000     0.93929
 =======================================================================
   * Total *   -0.00000     37.99890   100.00110    0.00000   138.00000

                                 Natural Population      
 --------------------------------------------------------
   Core                      37.99890 ( 99.9971% of  38)
   Valence                  100.00110 (100.0011% of 100)
   Natural Minimal Basis    138.00000 (100.0000% of 138)
   Natural Rydberg Basis      0.00000 (  0.0000% of 138)
 --------------------------------------------------------

    Atom  No          Natural Electron Configuration
 ----------------------------------------------------------------------------
      C    1      [core]2S( 1.08)2p( 2.84)
      C    2      [core]2S( 1.08)2p( 2.99)
      C    3      [core]2S( 1.08)2p( 2.93)
      C    4      [core]2S( 1.08)2p( 3.02)
      C    5      [core]2S( 1.06)2p( 2.75)
      C    6      [core]2S( 1.09)2p( 3.04)
      C    7      [core]2S( 1.08)2p( 2.68)
      O    8      [core]2S( 1.73)2p( 4.52)
      C    9      [core]2S( 1.09)2p( 2.76)
      C   10      [core]2S( 1.10)2p( 2.99)
      C   11      [core]2S( 1.09)2p( 2.99)
      C   12      [core]2S( 1.07)2p( 2.89)
      N   13      [core]2S( 1.45)2p( 3.83)
      C   14      [core]2S( 1.08)2p( 2.82)
      C   15      [core]2S( 1.09)2p( 2.98)
      C   16      [core]2S( 1.08)2p( 2.98)
      C   17      [core]2S( 1.07)2p( 2.89)
      O   18      [core]2S( 1.80)2p( 4.44)
      C   19      [core]2S( 1.08)2p( 3.07)
      H   20            1S( 0.94)
      H   21            1S( 0.98)
      H   22            1S( 0.99)
      H   23            1S( 0.97)
      H   24            1S( 0.96)
      H   25            1S( 0.96)
      H   26            1S( 0.95)
      H   27            1S( 0.96)
      H   28            1S( 0.96)
      H   29            1S( 0.99)
      H   30            1S( 0.96)
      H   31            1S( 0.96)
      H   32            1S( 0.97)
      H   33            1S( 0.96)
      H   34            1S( 0.97)
      H   35            1S( 0.99)
      H   36            1S( 0.94)
      H   37            1S( 0.96)
      H   38            1S( 0.94)


 NATURAL BOND ORBITAL ANALYSIS:

                       Occupancies       Lewis Structure    Low   High
           Occ.    -------------------  -----------------   occ   occ
  Cycle   Thresh.   Lewis   Non-Lewis     CR  BD  3C  LP    (L)   (NL)   Dev
 =============================================================================
   1(1)    1.90   134.44118   3.55882     19  43   0   7     3      3    0.45
   2(2)    1.90   134.44118   3.55882     19  43   0   7     3      3    0.45
   3(1)    1.80   134.35450   3.64550     19  42   0   8     3      3    0.45
   4(2)    1.80   134.35450   3.64550     19  42   0   8     3      3    0.45
   5(1)    1.70   134.35450   3.64550     19  42   0   8     3      3    0.45
   6(2)    1.70   134.35450   3.64550     19  42   0   8     3      3    0.45
   7(1)    1.60   135.52789   2.47211     19  44   0   6     1      3    0.43
   8(2)    1.60   136.10218   1.89782     19  45   0   5     0      3    0.45
   9(3)    1.60   136.13098   1.86902     19  45   0   5     0      3    0.43
  10(4)    1.60   136.10218   1.89782     19  45   0   5     0      3    0.45
  11(5)    1.60   136.13098   1.86902     19  45   0   5     0      3    0.43
  12(1)    1.50   136.13098   1.86902     19  45   0   5     0      3    0.43
  13(2)    1.50   136.10218   1.89782     19  45   0   5     0      3    0.45
  14(3)    1.50   136.13098   1.86902     19  45   0   5     0      3    0.43
  15(1)    1.60   136.13098   1.86902     19  45   0   5     0      3    0.43
 -----------------------------------------------------------------------------

 Structure accepted: RESONANCE keyword permits strongly delocalized structure

 --------------------------------------------------------
   Core                     37.99890 ( 99.997% of  38)
   Valence Lewis            98.13208 ( 98.132% of 100)
  ==================       ============================
   Total Lewis             136.13098 ( 98.646% of 138)
  -----------------------------------------------------
   Valence non-Lewis         1.86902 (  1.354% of 138)
   Rydberg non-Lewis         0.00000 (  0.000% of 138)
  ==================       ============================
   Total non-Lewis           1.86902 (  1.354% of 138)
 --------------------------------------------------------


       (Occupancy)   Bond orbital/ Coefficients/ Hybrids
 ---------------------------------------------------------------------------------
     1. (1.98530) BD ( 1) C   1 - C   2  
                ( 50.03%)   0.7073* C   1 s( 33.73%)p 1.96( 66.27%)
                                            0.0000  0.5808  0.7190 -0.3763 -0.0648
                ( 49.97%)   0.7069* C   2 s( 34.48%)p 1.90( 65.52%)
                                            0.0001  0.5872 -0.7093  0.3833  0.0715
     2. (1.65810) BD ( 2) C   1 - C   2  
                ( 45.55%)   0.6749* C   1 s(  0.00%)p 1.00(100.00%)
                                           -0.0000 -0.0011  0.0238 -0.1271  0.9916
                ( 54.45%)   0.7379* C   2 s(  0.00%)p 1.00(100.00%)
                                            0.0000  0.0002  0.0260 -0.1368  0.9903
     3. (1.98100) BD ( 1) C   1 - C   6  
                ( 49.47%)   0.7033* C   1 s( 34.59%)p 1.89( 65.41%)
                                            0.0001  0.5881 -0.6944 -0.4131 -0.0356
                ( 50.53%)   0.7108* C   6 s( 35.71%)p 1.80( 64.29%)
                                            0.0000  0.5976  0.6621  0.4498  0.0474
     4. (1.98735) BD ( 1) C   1 - C  19  
                ( 50.13%)   0.7080* C   1 s( 31.68%)p 2.16( 68.32%)
                                           -0.0000  0.5629 -0.0162  0.8195  0.1061
                ( 49.87%)   0.7062* C  19 s( 25.59%)p 2.91( 74.41%)
                                            0.0001  0.5059 -0.0044 -0.8556 -0.1097
     5. (1.98975) BD ( 1) C   2 - C   3  
                ( 49.56%)   0.7040* C   2 s( 34.20%)p 1.92( 65.80%)
                                            0.0001  0.5848  0.0391 -0.8025 -0.1120
                ( 50.44%)   0.7102* C   3 s( 34.34%)p 1.91( 65.66%)
                                            0.0000  0.5860 -0.0255  0.8014  0.1170
     6. (1.98878) BD ( 1) C   2 - H  23  
                ( 51.62%)   0.7184* C   2 s( 31.32%)p 2.19( 68.68%)
                                           -0.0001  0.5597  0.7033  0.4363  0.0417
[...]

 Contributions to Isotropic shielding for atom   18 (  -338.2919 ppm):
                         Standard Origin              Atomic Origin
 NLMO      Total    Paramagnetic  Diamagnetic   Paramagnetic  Diamagnetic
    3      -0.4566       -0.5813       0.1247        -1.1116       0.6550
    4       0.1325       -1.1166       1.2491        -0.8429       0.9754
    8       0.3635       -0.2537       0.6172        -0.6656       1.0291
   13       0.7211       -0.4189       1.1401        -0.7240       1.4451
   15     -10.6813      -10.8223       0.1409       -11.3807       0.6994
   16      -9.8538      -10.3340       0.4802       -10.5131       0.6593
   17    -117.2138     -127.3095      10.0956      -126.6577       9.4439
   18     -24.0557      -49.0315      24.9758       -49.1721      25.1164
   20      -0.8471       -1.0173       0.1702        -1.1426       0.2954
   23      -0.3435       -0.4815       0.1380        -1.2968       0.9532
   37      -0.2557       -1.2140       0.9583        -0.9508       0.6951
   43      -0.3834       -1.7540       1.3706        -1.3347       0.9513
   45      -0.3407       -1.7786       1.4380        -1.3014       0.9607
   63     271.9342       -0.0053     271.9396        -0.0053     271.9395
   68     -33.9925      -69.0965      35.1040       -69.0025      35.0100
   69    -412.9530     -450.1580      37.2050      -452.5673      39.6142
 Sum     -338.2259     -725.3731     387.1472      -728.6691     390.4433

 Contributions to Isotropic shielding for atom   19 (   218.3190 ppm):
                         Standard Origin              Atomic Origin
 NLMO      Total    Paramagnetic  Diamagnetic   Paramagnetic  Diamagnetic
    1      -1.9394       -1.3496      -0.5899        -2.4182       0.4787
    2      -0.9412       -0.7920      -0.1492        -2.5927       1.6515
    3      -0.9893       -1.4843       0.4950        -1.2873       0.2980
    4       3.7428      -10.7430      14.4859        -3.2209       6.9638
    6      -0.6721       -1.6479       0.9758        -1.7077       1.0356
    8       0.8489       -0.3475       1.1965        -0.3367       1.1856
   15      -0.3616        0.0807      -0.4423        -1.2267       0.8651
   17      -0.4394       -0.2134      -0.2260        -1.1801       0.7407
   18       0.2133        0.3231      -0.1098        -1.2571       1.4703
   43       7.0282       -5.8263      12.8544        -4.3956      11.4238
   44       4.0308        5.5283      -1.4975        -7.1577      11.1885
   45       7.2971       -4.6768      11.9738        -4.1414      11.4384
   64     200.0788       -0.0032     200.0820         0.0032     200.0757
 Sum      217.8969      -21.1519     239.0487       -30.9188     248.8157

 Contributions to Isotropic shielding for atom   20 (    31.0851 ppm):
                         Standard Origin              Atomic Origin
 NLMO      Total    Paramagnetic  Diamagnetic   Paramagnetic  Diamagnetic
   13       0.1195       -0.6404       0.7598        -1.2008       1.3203
   16       1.9673        1.4041       0.5632         1.2935       0.6738
   19       0.0346       -0.5207       0.5553        -1.1104       1.1449
   20       1.3826        0.9339       0.4487         0.8008       0.5819
   23       1.0963        1.2053      -0.1090         0.3185       0.7779
   24      25.5804        0.1725      25.4079         0.3757      25.2047
   36      -0.1025       -1.3303       1.2278        -0.9243       0.8218
 Sum       30.0783        1.2245      28.8537        -0.4471      30.5254

 Contributions to Isotropic shielding for atom   21 (    31.5431 ppm):
                         Standard Origin              Atomic Origin
 NLMO      Total    Paramagnetic  Diamagnetic   Paramagnetic  Diamagnetic
   13       0.1292       -0.5932       0.7224        -1.1958       1.3250
   19       0.8006        0.4602       0.3404        -0.5800       1.3806
   20       1.0990       -0.3738       1.4728         0.3291       0.7699
   21       0.4575        0.7735      -0.3160        -0.6765       1.1340
   22      26.3708        0.4374      25.9335         0.7436      25.6272
 Sum       28.8571        0.7041      28.1530        -1.3796      30.2367

 Contributions to Isotropic shielding for atom   22 (    32.3278 ppm):
                         Standard Origin              Atomic Origin
 NLMO      Total    Paramagnetic  Diamagnetic   Paramagnetic  Diamagnetic
   17      -0.1269       -0.3190       0.1921        -1.0001       0.8733
   18       0.0746       -0.3299       0.4045        -1.3081       1.3826
   23       1.2464       -0.6316       1.8780         0.4537       0.7927
   31       0.5443        1.6291      -1.0848         0.0822       0.4621
   33       0.6064        1.2947      -0.6883        -0.2074       0.8138
   34      26.4683        0.2360      26.2324         0.5792      25.8892
   37       0.1240       -0.8844       1.0084        -0.8615       0.9854
   38       0.2287       -1.3569       1.5856        -0.6550       0.8837
   42       0.1750       -1.2033       1.3783        -0.5944       0.7694
 Sum       29.3409       -1.5652      30.9061        -3.5114      32.8523

 Contributions to Isotropic shielding for atom   23 (    25.9070 ppm):
                         Standard Origin              Atomic Origin
 NLMO      Total    Paramagnetic  Diamagnetic   Paramagnetic  Diamagnetic
    1      -1.3990       -2.7869       1.3879        -1.9771       0.5781
    2       0.8237        1.6314      -0.8077        -2.5378       3.3615
    4      -0.7046        0.8330      -1.5376        -1.7769       1.0723
    5      -2.0463       -1.1817      -0.8646        -2.7527       0.7064
    6      27.0388        0.9443      26.0945         1.5505      25.4883
    9      -0.0786       -0.1677       0.0891        -1.1839       1.1053
   13       0.5379        0.9125      -0.3746        -0.7139       1.2518
   44      -0.1243       -1.2468       1.1225        -0.9072       0.7829
 Sum       24.0475       -1.0620      25.1095       -10.2991      34.3466

 Contributions to Isotropic shielding for atom   24 (    25.2825 ppm):
                         Standard Origin              Atomic Origin
 NLMO      Total    Paramagnetic  Diamagnetic   Paramagnetic  Diamagnetic
    2       1.2861        0.8712       0.4150         0.2216       1.0645
    5      -2.0880       -1.9291      -0.1589        -2.8321       0.7442
    6      -0.1061        0.1245      -0.2307        -1.2351       1.1289
    7      -1.8966       -2.6433       0.7467        -2.6219       0.7253
    8       0.4545        1.4259      -0.9714        -2.3696       2.8241
    9      26.9101        1.0959      25.8142         1.6117      25.2984
   11      -0.1145        0.6856      -0.8002        -1.2219       1.1073
   13       0.4634        0.8062      -0.3428        -0.9154       1.3787
 Sum       24.9088        0.4368      24.4720        -9.3626      34.2714

 Contributions to Isotropic shielding for atom   25 (    25.6887 ppm):
                         Standard Origin              Atomic Origin
 NLMO      Total    Paramagnetic  Diamagnetic   Paramagnetic  Diamagnetic
    2       1.2639       -0.4416       1.7055         0.0354       1.2285
    7      -1.8252       -0.8988      -0.9265        -2.5108       0.6855
    8       0.1522        0.1010       0.0513        -3.2469       3.3991
    9      -0.0487       -0.9950       0.9464        -1.1459       1.0973
   10      -0.8852       -2.5689       1.6837        -1.4413       0.5561
   11      26.5301        1.0720      25.4580         1.3175      25.2126
   14      -0.5081        0.5203      -1.0284        -2.1403       1.6322
 Sum       24.6790       -3.2110      27.8900        -9.1323      33.8113

 Contributions to Isotropic shielding for atom   26 (    31.2421 ppm):
                         Standard Origin              Atomic Origin
 NLMO      Total    Paramagnetic  Diamagnetic   Paramagnetic  Diamagnetic
   19       0.0286        0.3105      -0.2820        -1.5432       1.5718
   21       1.5540       -0.3942       1.9482         0.7467       0.8073
   25       1.0762        1.2865      -0.2103         0.1425       0.9338
   26      25.9279        0.1781      25.7499         0.4384      25.4895
   27       1.9607        1.9719      -0.0112         0.1121       1.8486
   28       0.1718       -0.7528       0.9246        -0.9499       1.1217
 Sum       30.7194        2.6001      28.1192        -1.0534      31.7728

 Contributions to Isotropic shielding for atom   27 (    31.6206 ppm):
                         Standard Origin              Atomic Origin
 NLMO      Total    Paramagnetic  Diamagnetic   Paramagnetic  Diamagnetic
   19      -0.0134        0.5200      -0.5334        -1.5074       1.4940
   21       1.4090        0.2114       1.1976         0.5484       0.8607
   22       0.0403        0.3264      -0.2860        -0.9739       1.0143
   25       0.9145        1.9730      -1.0585        -0.0591       0.9736
   26       2.0132        1.7485       0.2647         0.1253       1.8879
   27      26.1764        0.0281      26.1483         0.4607      25.7157
 Sum       30.5401        4.8075      25.7326        -1.4061      31.9461

 Contributions to Isotropic shielding for atom   28 (    31.4877 ppm):
                         Standard Origin              Atomic Origin
 NLMO      Total    Paramagnetic  Diamagnetic   Paramagnetic  Diamagnetic
   25       0.8739        1.0024      -0.1285        -0.1738       1.0476
   26       0.1601        0.4932      -0.3331        -0.8693       1.0294
   28       0.6555        1.1867      -0.5313        -0.5597       1.2152
   29      26.2959        0.1295      26.1664         0.7534      25.5426
   30       1.5102        1.5941      -0.0839        -0.1940       1.7041
   32      -0.2918        0.6670      -0.9588        -1.1508       0.8590
 Sum       29.2037        5.0729      24.1308        -2.1942      31.3979

 Contributions to Isotropic shielding for atom   29 (    32.6605 ppm):
                         Standard Origin              Atomic Origin
 NLMO      Total    Paramagnetic  Diamagnetic   Paramagnetic  Diamagnetic
   25       1.2366       -0.3647       1.6013         0.3269       0.9098
   28       1.1598       -0.1432       1.3029         0.4889       0.6709
   29       1.6465        2.3007      -0.6542        -0.1709       1.8174
   30      26.6963        0.4631      26.2332         0.7137      25.9826
   42       0.1201       -1.1946       1.3147        -0.7089       0.8290
 Sum       30.8594        1.0614      29.7979         0.6497      30.2097

 Contributions to Isotropic shielding for atom   30 (    31.8303 ppm):
                         Standard Origin              Atomic Origin
 NLMO      Total    Paramagnetic  Diamagnetic   Paramagnetic  Diamagnetic
   18       0.0490       -0.1561       0.2051        -1.0924       1.1414
   23      -0.1775        0.0025      -0.1800        -1.0626       0.8851
   24      -0.1658        0.1094      -0.2752        -1.0472       0.8814
   33       1.7611       -0.8744       2.6354         1.1310       0.6300
   35       0.5702        2.0005      -1.4303        -0.2630       0.8332
   36      26.1318        0.1887      25.9431         0.3888      25.7431
   37       2.0873        0.7684       1.3189         0.2695       1.8178
   38       0.3556       -0.9275       1.2831         0.0216       0.3340
   40       0.0183       -1.8697       1.8880        -1.1543       1.1726
 Sum       30.6299       -0.7584      31.3883        -2.8087      33.4386

 Contributions to Isotropic shielding for atom   31 (    31.3384 ppm):
                         Standard Origin              Atomic Origin
 NLMO      Total    Paramagnetic  Diamagnetic   Paramagnetic  Diamagnetic
   18       0.1213       -0.2558       0.3771        -1.0222       1.1435
   33       1.6298       -0.6777       2.3074         0.9470       0.6828
   35       0.4735        2.2525      -1.7790        -0.3808       0.8543
   36       2.0951        0.7193       1.3758         0.3058       1.7893
   37      26.0040        0.1717      25.8323         0.4226      25.5814
   38       0.2538       -0.8036       1.0575         0.1161       0.1377
   39       0.0399       -1.5875       1.6274        -1.0883       1.1283
 Sum       30.6174       -0.1809      30.7983        -0.6998      31.3172

 Contributions to Isotropic shielding for atom   32 (    31.9815 ppm):
                         Standard Origin              Atomic Origin
 NLMO      Total    Paramagnetic  Diamagnetic   Paramagnetic  Diamagnetic
   31      -0.2441        0.4491      -0.6932        -1.1458       0.9017
   32       0.3137       -0.8182       1.1319         0.0649       0.2488
   35       1.4820       -0.6257       2.1078         0.6008       0.8812
   37      -0.0992        0.9067      -1.0059        -1.2070       1.1078
   38       0.7346        1.1017      -0.3672        -0.0515       0.7861
   39      26.4211       -0.0702      26.4913         0.5580      25.8631
   40       1.8848        2.9937      -1.1090         0.0884       1.7964
   42      -0.1065       -0.1278       0.0213        -1.2443       1.1378
 Sum       30.3863        3.8093      26.5770        -2.3366      32.7229

 Contributions to Isotropic shielding for atom   33 (    31.6978 ppm):
                         Standard Origin              Atomic Origin
 NLMO      Total    Paramagnetic  Diamagnetic   Paramagnetic  Diamagnetic
   31      -0.1096        0.2538      -0.3634        -1.0107       0.9011
   35       1.4068       -0.5327       1.9395         0.4835       0.9232
   36      -0.1889        1.0506      -1.2395        -1.3812       1.1923
   38       0.7959        1.2210      -0.4251         0.0071       0.7888
   39       1.8448        2.9381      -1.0933         0.0675       1.7773
   40      26.3039       -0.1306      26.4344         0.5542      25.7497
   41      -0.0383       -0.1222       0.0840        -1.1853       1.1471
 Sum       30.0145        4.6780      25.3366        -2.4649      32.4794

 Contributions to Isotropic shielding for atom   34 (    31.5227 ppm):
                         Standard Origin              Atomic Origin
 NLMO      Total    Paramagnetic  Diamagnetic   Paramagnetic  Diamagnetic
   28      -0.2284        0.9020      -1.1304        -0.8557       0.6273
   32       1.2453       -0.2415       1.4867         0.1000       1.1452
   35       0.2569       -0.7449       1.0018         0.0953       0.1617
   38       0.4482        1.6123      -1.1640        -0.4337       0.8819
   40       0.0103       -0.0327       0.0430        -1.1111       1.1214
   41      26.3544        0.1798      26.1746         0.7767      25.5777
   42       1.3710        1.9017      -0.5307        -0.3296       1.7006
 Sum       29.4577        3.5768      25.8809        -1.7582      31.2159

 Contributions to Isotropic shielding for atom   35 (    32.3615 ppm):
                         Standard Origin              Atomic Origin
 NLMO      Total    Paramagnetic  Diamagnetic   Paramagnetic  Diamagnetic
   28      -0.3799        0.7789      -1.1588        -1.1509       0.7710
   32       1.6685       -1.6139       3.2824         1.0702       0.5984
   35       0.3108       -0.8758       1.1866        -0.0920       0.4028
   39      -0.0193       -0.5064       0.4871        -1.1551       1.1357
   41       1.5923        2.5221      -0.9297        -0.2630       1.8553
   42      26.8024        0.4533      26.3491         0.8445      25.9579
 Sum       29.9749        0.7581      29.2167        -0.7463      30.7212

 Contributions to Isotropic shielding for atom   36 (    31.3111 ppm):
                         Standard Origin              Atomic Origin
 NLMO      Total    Paramagnetic  Diamagnetic   Paramagnetic  Diamagnetic
    2      -0.7975       -0.5472      -0.2503        -1.6833       0.8857
    4       1.8680       -0.7940       2.6620         1.0017       0.8663
    8       0.5743       -0.2347       0.8090        -0.5251       1.0994
   15      -0.2679        0.2225      -0.4904        -1.1848       0.9169
   18       0.0056        0.3042      -0.2986        -1.2914       1.2970
   43      25.7532        0.2692      25.4840         0.3445      25.4088
   44       1.8027        2.3959      -0.5933        -0.0839       1.8865
   45       2.2180        0.2149       2.0032         0.3916       1.8265
 Sum       31.1564        1.8308      29.3256        -3.0307      34.1871

 Contributions to Isotropic shielding for atom   37 (    31.0112 ppm):
                         Standard Origin              Atomic Origin
 NLMO      Total    Paramagnetic  Diamagnetic   Paramagnetic  Diamagnetic
    1      -0.9911        0.1933      -1.1845        -1.8949       0.9037
    2      -0.7452        0.0456      -0.7908        -2.3526       1.6074
    6      -0.0019       -1.5081       1.5061        -0.9393       0.9374
   18       0.0579        0.1486      -0.0907        -0.9497       1.0075
   43       2.0415        2.0879      -0.0463         0.0599       1.9816
   44      26.2570       -0.1570      26.4140         0.5243      25.7327
   45       2.1429        2.3273      -0.1843         0.1786       1.9644
 Sum       28.7610        3.1375      25.6235        -5.3737      34.1347

 Contributions to Isotropic shielding for atom   38 (    30.7412 ppm):
                         Standard Origin              Atomic Origin
 NLMO      Total    Paramagnetic  Diamagnetic   Paramagnetic  Diamagnetic
    2      -0.8454       -0.5364      -0.3090        -1.7732       0.9278
    4       1.8406       -0.5925       2.4331         0.9626       0.8780
    8       0.5788       -0.2269       0.8056        -0.4974       1.0762
   15      -0.3085        0.1417      -0.4503        -1.2079       0.8993
   17      -0.4591       -0.2948      -0.1643        -1.0256       0.5665
   18       0.1626        0.2451      -0.0825        -1.1696       1.3322
   43       2.2288        0.1903       2.0386         0.4239       1.8049
   44       1.7889        2.5501      -0.7612        -0.0837       1.8726
   45      25.6649        0.2377      25.4272         0.3378      25.3271
 Sum       30.6516        1.7143      28.9372        -4.0331      34.6847
 
 1\1\GINC-GNOSIE-MM\SP\RHF\STO-3G\C16H19N1O2\MBENIDD\30-Apr-2026\0\\# n
 mr=giao hf/sto-3g pop=nbo\\Title Card Required\\0,1\C,0,0.,0.,0.\C,0,1
 .4069,0.,0.\C,0,2.127,1.1945,0.\C,0,1.4526,2.4107,-0.0114\C,0,0.0583,2
 .4348,-0.033\C,0,-0.6748,1.2369,-0.0128\C,0,-2.1537,1.3494,0.0221\O,0,
 -0.4993,3.689,-0.0557\C,0,-1.861,3.6941,-0.5009\C,0,-2.6958,2.7253,0.3
 349\C,0,-2.3906,5.1285,-0.3976\C,0,-3.8835,5.2,-0.7181\N,0,-4.5896,4.2
 761,0.1568\C,0,-4.1662,2.8808,-0.0379\C,0,-5.1661,2.1632,0.8605\C,0,-6
 .4517,2.9807,0.7111\C,0,-6.039,4.2656,-0.0041\O,0,-2.8797,0.3787,-0.16
 71\C,0,-0.7119,-1.325,0.023\H,0,-2.543,2.9004,1.4088\H,0,-1.8729,3.406
 6,-1.5637\H,0,-4.333,2.5679,-1.0799\H,0,1.9557,-0.9406,0.0091\H,0,3.21
 41,1.1749,0.0087\H,0,2.0124,3.3426,-0.0132\H,0,-2.2016,5.5189,0.6117\H
 ,0,-1.8277,5.7802,-1.0768\H,0,-4.234,6.2244,-0.5479\H,0,-4.0547,4.9627
 ,-1.7756\H,0,-4.8428,2.1703,1.9088\H,0,-5.3232,1.1215,0.5645\H,0,-7.20
 06,2.4358,0.1264\H,0,-6.8801,3.1911,1.6974\H,0,-6.5093,5.1455,0.4456\H
 ,0,-6.331,4.2145,-1.0604\H,0,-1.37,-1.3935,0.8949\H,0,-0.0043,-2.1587,
 0.0934\H,0,-1.2861,-1.4673,-0.8977\\Version=EM64L-G16RevB.01\State=1-A
 \HF=-811.0642273\RMSD=7.565e-09\Dipole=-0.0660439,0.1587521,-0.321276\
 Quadrupole=1.7457911,-1.6131152,-0.1326758,-3.6248211,1.0008033,-2.112
 9646\PG=C01 [X(C16H19N1O2)]\\@


 Standing in the middle of the road is very dangerous;
 you get knocked down by the traffic from both sides.
                                -- Margaret Thatcher
 Job cpu time:       0 days  0 hours  3 minutes 48.4 seconds.
 Elapsed time:       0 days  0 hours  2 minutes  6.9 seconds.
 File lengths (MBytes):  RWF=     14 Int=      0 D2E=      0 Chk=      2 Scr=      1
 Normal termination of Gaussian 16 at Thu Apr 30 09:13:24 2026.
