 Entering Gaussian System, Link 0=g16
 Input=/home/mbenidd/Bureau/Elaeocarpines/HF_NMR/4/4_isoelaeocarpine_c_1.gjf
 Output=/home/mbenidd/Bureau/Elaeocarpines/HF_NMR/4/4_isoelaeocarpine_c_1.log
 Initial command:
 /opt/gaussian/g16/l1.exe "/home/mbenidd/Bureau/Elaeocarpines/HF_NMR/4/Gau-9818.inp" -scrdir="/home/mbenidd/Bureau/Elaeocarpines/HF_NMR/4/"
 Entering Link 1 = /opt/gaussian/g16/l1.exe PID=      9821.
  
 Copyright (c) 1988-2017, Gaussian, Inc.  All Rights Reserved.
  
 This is part of the Gaussian(R) 16 program.  It is based on
 the Gaussian(R) 09 system (copyright 2009, Gaussian, Inc.),
 the Gaussian(R) 03 system (copyright 2003, Gaussian, Inc.),
 the Gaussian(R) 98 system (copyright 1998, Gaussian, Inc.),
 the Gaussian(R) 94 system (copyright 1995, Gaussian, Inc.),
 the Gaussian 92(TM) system (copyright 1992, Gaussian, Inc.),
 the Gaussian 90(TM) system (copyright 1990, Gaussian, Inc.),
 the Gaussian 88(TM) system (copyright 1988, Gaussian, Inc.),
 the Gaussian 86(TM) system (copyright 1986, Carnegie Mellon
 University), and the Gaussian 82(TM) system (copyright 1983,
 Carnegie Mellon University). Gaussian is a federally registered
 trademark of Gaussian, Inc.
  
 This software contains proprietary and confidential information,
 including trade secrets, belonging to Gaussian, Inc.
  
 This software is provided under written license and may be
 used, copied, transmitted, or stored only in accord with that
 written license.
  
 The following legend is applicable only to US Government
 contracts under FAR:
  
                    RESTRICTED RIGHTS LEGEND
  
 Use, reproduction and disclosure by the US Government is
 subject to restrictions as set forth in subparagraphs (a)
 and (c) of the Commercial Computer Software - Restricted
 Rights clause in FAR 52.227-19.
  
 Gaussian, Inc.
 340 Quinnipiac St., Bldg. 40, Wallingford CT 06492
  
  
 ---------------------------------------------------------------
 Warning -- This program may not be used in any manner that
 competes with the business of Gaussian, Inc. or will provide
 assistance to any competitor of Gaussian, Inc.  The licensee
 of this program is prohibited from giving any competitor of
 Gaussian, Inc. access to this program.  By using this program,
 the user acknowledges that Gaussian, Inc. is engaged in the
 business of creating and licensing software in the field of
 computational chemistry and represents and warrants to the
 licensee that it is not a competitor of Gaussian, Inc. and that
 it will not use this program in any manner prohibited above.
 ---------------------------------------------------------------
  

 Cite this work as:
 Gaussian 16, Revision B.01,
 M. J. Frisch, G. W. Trucks, H. B. Schlegel, G. E. Scuseria, 
 M. A. Robb, J. R. Cheeseman, G. Scalmani, V. Barone, 
 G. A. Petersson, H. Nakatsuji, X. Li, M. Caricato, A. V. Marenich, 
 J. Bloino, B. G. Janesko, R. Gomperts, B. Mennucci, H. P. Hratchian, 
 J. V. Ortiz, A. F. Izmaylov, J. L. Sonnenberg, D. Williams-Young, 
 F. Ding, F. Lipparini, F. Egidi, J. Goings, B. Peng, A. Petrone, 
 T. Henderson, D. Ranasinghe, V. G. Zakrzewski, J. Gao, N. Rega, 
 G. Zheng, W. Liang, M. Hada, M. Ehara, K. Toyota, R. Fukuda, 
 J. Hasegawa, M. Ishida, T. Nakajima, Y. Honda, O. Kitao, H. Nakai, 
 T. Vreven, K. Throssell, J. A. Montgomery, Jr., J. E. Peralta, 
 F. Ogliaro, M. J. Bearpark, J. J. Heyd, E. N. Brothers, K. N. Kudin, 
 V. N. Staroverov, T. A. Keith, R. Kobayashi, J. Normand, 
 K. Raghavachari, A. P. Rendell, J. C. Burant, S. S. Iyengar, 
 J. Tomasi, M. Cossi, J. M. Millam, M. Klene, C. Adamo, R. Cammi, 
 J. W. Ochterski, R. L. Martin, K. Morokuma, O. Farkas, 
 J. B. Foresman, and D. J. Fox, Gaussian, Inc., Wallingford CT, 2016.
 
 ******************************************
 Gaussian 16:  EM64L-G16RevB.01 20-Dec-2017
                18-May-2026 
 ******************************************
 %nprocshared=4
 Will use up to    4 processors via shared memory.
 ----------------------------
 # nmr=giao hf/sto-3g pop=nbo
 ----------------------------
 1/38=1,172=1/1;
 2/12=2,17=6,18=5,40=1/2;
 3/6=3,11=9,25=1,30=1/1,2,3,8;
 4//1;
 5/5=2,38=5/2;
 8/6=1,10=90,11=11/1;
 10/13=100,45=16/2;
 6/7=2,8=2,9=2,10=2,28=1,40=1,64=1/1,7;
 99/9=1/99;
 -------------------
 Title Card Required
 -------------------
 Symbolic Z-matrix:
 Charge =  0 Multiplicity = 1
 C                     0.        0.        0. 
 C                     1.4075    0.        0. 
 C                     2.1282    1.1937    0. 
 C                     1.4536    2.4092    0.012 
 C                     0.0592    2.4323    0.0323 
 C                    -0.6769    1.2368    0.0057 
 C                    -2.1564    1.3485   -0.0547 
 O                    -0.4994    3.6853    0.0545 
 C                    -1.8221    3.6892    0.602 
 C                    -2.7188    2.7467   -0.1786 
 C                    -2.3661    5.1114    0.5062 
 C                    -3.7992    5.1715    1.0194 
 N                    -4.6828    4.2467    0.2906 
 C                    -4.1823    2.8504    0.2608 
 C                    -4.5439    2.303     1.6436 
 C                    -5.8216    3.0468    2.0227 
 C                    -5.9862    4.1365    0.9681 
 O                    -2.878     0.3553   -0.0625 
 C                    -0.7076   -1.3277   -0.0211 
 H                    -2.66      2.9952   -1.2491 
 H                    -1.7529    3.4057    1.662 
 H                    -4.7844    2.3024   -0.4793 
 H                     1.9561   -0.9407   -0.0092 
 H                     3.2152    1.1739   -0.009 
 H                     2.013     3.3413    0.0144 
 H                    -1.7296    5.7923    1.0843 
 H                    -2.3153    5.4667   -0.5317 
 H                    -3.7961    4.9697    2.0983 
 H                    -4.1731    6.1945    0.8911 
 H                    -3.7649    2.503     2.3872 
 H                    -4.715     1.2219    1.6267 
 H                    -5.7223    3.4763    3.0257 
 H                    -6.6864    2.375     2.0276 
 H                    -6.3379    5.0829    1.3938 
 H                    -6.7374    3.8235    0.2324 
 H                    -1.3496   -1.4351    0.8587 
 H                     0.0034   -2.1612    0.0015 
 H                    -1.2966   -1.4344   -0.9374 
 
                          Input orientation:                          
 ---------------------------------------------------------------------
 Center     Atomic      Atomic             Coordinates (Angstroms)
 Number     Number       Type             X           Y           Z
 ---------------------------------------------------------------------
      1          6           0        0.000000    0.000000    0.000000
      2          6           0        1.407500    0.000000    0.000000
      3          6           0        2.128200    1.193700    0.000000
      4          6           0        1.453600    2.409200    0.012000
      5          6           0        0.059200    2.432300    0.032300
      6          6           0       -0.676900    1.236800    0.005700
      7          6           0       -2.156400    1.348500   -0.054700
      8          8           0       -0.499400    3.685300    0.054500
      9          6           0       -1.822100    3.689200    0.602000
     10          6           0       -2.718800    2.746700   -0.178600
     11          6           0       -2.366100    5.111400    0.506200
     12          6           0       -3.799200    5.171500    1.019400
     13          7           0       -4.682800    4.246700    0.290600
     14          6           0       -4.182300    2.850400    0.260800
     15          6           0       -4.543900    2.303000    1.643600
     16          6           0       -5.821600    3.046800    2.022700
     17          6           0       -5.986200    4.136500    0.968100
     18          8           0       -2.878000    0.355300   -0.062500
     19          6           0       -0.707600   -1.327700   -0.021100
     20          1           0       -2.660000    2.995200   -1.249100
     21          1           0       -1.752900    3.405700    1.662000
     22          1           0       -4.784400    2.302400   -0.479300
     23          1           0        1.956100   -0.940700   -0.009200
     24          1           0        3.215200    1.173900   -0.009000
     25          1           0        2.013000    3.341300    0.014400
     26          1           0       -1.729600    5.792300    1.084300
     27          1           0       -2.315300    5.466700   -0.531700
     28          1           0       -3.796100    4.969700    2.098300
     29          1           0       -4.173100    6.194500    0.891100
     30          1           0       -3.764900    2.503000    2.387200
     31          1           0       -4.715000    1.221900    1.626700
     32          1           0       -5.722300    3.476300    3.025700
     33          1           0       -6.686400    2.375000    2.027600
     34          1           0       -6.337900    5.082900    1.393800
     35          1           0       -6.737400    3.823500    0.232400
     36          1           0       -1.349600   -1.435100    0.858700
     37          1           0        0.003400   -2.161200    0.001500
     38          1           0       -1.296600   -1.434400   -0.937400
 ---------------------------------------------------------------------
                    Distance matrix (angstroms):
                    1          2          3          4          5
     1  C    0.000000
     2  C    1.407500   0.000000
     3  C    2.440114   1.394392   0.000000
     4  C    2.813777   2.409671   1.390205   0.000000
     5  C    2.433235   2.781194   2.411625   1.394739   0.000000
     6  C    1.409929   2.423722   2.805437   2.431788   1.404198
     7  C    2.543915   3.810883   4.287744   3.763195   2.468010
     8  O    3.719383   4.149780   3.621508   2.333334   1.372055
     9  C    4.158443   4.939931   4.711135   3.566050   2.333162
    10  C    3.868867   4.960102   5.092849   4.190365   2.803678
    11  C    5.655181   6.373594   5.983590   4.704915   3.644755
    12  C    6.497500   7.409002   7.210835   6.019723   4.833718
    13  N    6.328311   7.430388   7.469604   6.411664   5.083830
    14  C    5.067981   6.280021   6.529554   5.658615   4.268178
    15  C    5.352780   6.589719   6.960523   6.216382   4.878682
    16  C    6.874979   8.101493   8.409793   7.574826   6.238839
    17  C    7.340466   8.527289   8.685665   7.697293   6.350345
    18  O    2.900522   4.300657   5.076304   4.794457   3.598619
    19  C    1.504636   2.497375   3.794689   4.316978   3.837764
    20  H    4.196078   5.203463   5.266167   4.342289   3.058250
    21  H    4.175368   4.934487   4.766353   3.741277   2.624335
    22  H    5.331159   6.623473   7.017334   6.258229   4.872276
    23  H    2.170559   1.089019   2.141347   3.387445   3.870023
    24  H    3.422811   2.155435   1.087218   2.151660   3.397883
    25  H    3.900854   3.395751   2.150736   1.087081   2.154979
    26  H    6.141495   6.675915   6.099627   4.767385   3.949191
    27  H    5.960548   6.635266   6.187562   4.883495   3.894089
    28  H    6.596299   7.495214   7.332010   6.202270   5.056688
    29  H    7.522011   8.385045   8.093729   6.838206   5.727482
    30  H    5.112554   6.222335   6.491658   5.734380   4.491580
    31  H    5.135213   6.451682   7.033942   6.486028   5.176888
    32  H    7.347397   8.489615   8.717538   7.855866   6.593643
    33  H    7.379684   8.675425   9.121612   8.385906   7.034744
    34  H    8.243029   9.368552   9.420372   8.352575   7.057071
    35  H    7.750208   9.000698   9.250336   8.315125   6.940407
    36  H    2.149023   3.224667   4.443315   4.832543   4.198147
    37  H    2.161203   2.577263   3.971162   4.794971   4.593942
    38  H    2.148812   3.201309   4.417565   4.820604   4.210686
                    6          7          8          9         10
     6  C    0.000000
     7  C    1.484939   0.000000
     8  O    2.455410   2.866742   0.000000
     9  C    2.771520   2.453954   1.431540   0.000000
    10  C    2.546197   1.512154   2.420959   1.517140   0.000000
    11  C    4.256339   3.810249   2.392146   1.525702   2.486997
    12  C    5.124276   4.297419   3.745464   2.506065   2.912408
    13  N    5.018755   3.860245   4.227499   2.931106   2.515441
    14  C    3.867378   2.541558   3.781980   2.527953   1.531554
    15  C    4.332804   3.081469   4.560041   3.227178   2.616920
    16  C    5.814837   4.542412   5.710281   4.292676   3.816169
    17  C    6.125613   4.846280   5.580611   4.204026   3.731269
    18  O    2.372032   1.227686   4.093938   3.559687   2.399504
    19  C    2.564824   3.043386   5.017891   5.176838   4.546479
    20  H    2.932436   2.095668   2.616066   2.147157   1.100536
    21  H    2.933468   2.709602   2.057546   1.099437   2.180608
    22  H    4.271099   2.827825   4.534157   3.444945   2.134134
    23  H    3.416785   4.706927   5.237692   6.007024   5.956535
    24  H    3.892636   5.374631   4.484352   5.663431   6.141239
    25  H    3.415342   4.621680   2.536158   3.895420   4.772916
    26  H    4.798347   4.607259   2.648269   2.159676   3.442254
    27  H    4.567845   4.148777   2.610461   2.165185   2.772344
    28  H    5.295557   4.520743   4.085956   2.788417   3.359550
    29  H    6.130753   5.333417   4.526815   3.447798   3.891860
    30  H    4.100067   3.143727   4.183636   2.892833   2.781554
    31  H    4.351335   3.064240   5.129467   3.937823   3.093370
    32  H    6.292203   5.170304   6.012520   4.596869   4.452063
    33  H    6.441868   5.090243   6.624876   5.236494   4.554924
    34  H    6.983282   5.790409   6.151024   4.791847   4.585647
    35  H    6.593335   5.214750   6.242066   4.931005   4.180618
    36  H    2.884300   3.038693   5.252435   5.152436   4.520857
    37  H    3.465434   4.121394   5.868320   6.157940   5.615184
    38  H    2.899789   3.043509   5.275483   5.375610   4.481074
                   11         12         13         14         15
    11  C    0.000000
    12  C    1.523405   0.000000
    13  N    2.482194   1.472125   0.000000
    14  C    2.910485   2.471790   1.483591   0.000000
    15  C    3.731434   3.028613   2.372314   1.530535   0.000000
    16  C    4.301491   3.100171   2.395161   2.414574   1.526261
    17  C    3.777420   2.420088   1.473093   2.325593   2.428632
    18  O    4.817255   5.021444   4.304065   2.833945   3.078885
    19  C    6.670133   7.271879   6.853708   5.441464   5.538087
    20  H    2.765096   3.343673   2.833487   2.148991   3.520786
    21  H    2.149721   2.778188   3.342504   2.858969   3.000994
    22  H    3.835344   3.383557   2.093650   1.100262   2.136480
    23  H    7.454862   8.458161   8.430539   7.219785   7.450056
    24  H    6.849836   8.138809   8.479992   7.589891   8.013088
    25  H    4.748857   6.175866   6.762379   6.219601   6.835590
    26  H    1.096794   2.161677   3.426402   3.917737   4.517556
    27  H    1.098205   2.166798   2.787406   3.310403   4.439323
    28  H    2.144705   1.097615   2.139333   2.831429   2.806643
    29  H    2.141612   1.096718   2.101028   3.402994   3.980895
    30  H    3.506929   2.998824   2.877284   2.194650   1.095346
    31  H    4.679857   4.099615   3.306904   2.191224   1.094686
    32  H    4.503944   3.255343   3.025698   3.226147   2.162281
    33  H    5.335498   4.144008   3.245742   3.101307   2.177831
    34  H    4.069870   2.567688   2.157692   3.303688   3.317933
    35  H    4.565295   3.327085   2.098539   2.734276   3.019081
    36  H    6.634319   7.047945   6.611793   5.171768   4.979258
    37  H    7.665505   8.322522   7.943880   6.534788   6.580540
    38  H    6.787880   7.330074   6.726755   5.303061   5.583429
                   16         17         18         19         20
    16  C    0.000000
    17  C    1.525359   0.000000
    18  O    4.500779   5.002051   0.000000
    19  C    7.033233   7.661567   2.746787   0.000000
    20  H    4.550061   4.157180   2.902519   4.899726   0.000000
    21  H    4.100394   4.351597   3.680311   5.131331   3.076661
    22  H    2.808900   2.627397   2.756679   5.477944   2.363396
    23  H    8.973371   9.476983   5.005095   2.691692   6.191691
    24  H    9.449831   9.715837   6.148175   4.652581   6.274787
    25  H    8.093266   8.095004   5.730968   5.403932   4.853158
    26  H    5.016256   4.568788   5.674059   7.277417   3.759544
    27  H    4.967395   4.182623   5.163641   7.000663   2.596496
    28  H    2.793906   2.601560   5.177321   7.327205   4.049007
    29  H    3.729086   2.743834   6.056640   8.332184   4.135873
    30  H    2.158378   3.101023   3.376424   5.460884   3.832198
    31  H    2.170631   3.247244   2.641772   5.027421   3.954471
    32  H    1.095600   2.176976   5.231411   7.583444   5.280441
    33  H    1.095088   2.171567   4.790785   7.324835   5.228127
    34  H    2.192666   1.095713   6.036714   8.648584   4.987019
    35  H    2.155720   1.097053   5.197148   7.934583   4.416573
    36  H    6.437477   7.249328   2.527874   1.094416   5.078142
    37  H    8.070882   8.744750   3.826138   1.095789   5.936848
    38  H    7.022747   7.527164   2.543482   1.094491   4.645145
                   21         22         23         24         25
    21  H    0.000000
    22  H    3.872006   0.000000
    23  H    5.953216   7.494867   0.000000
    24  H    5.696946   8.092484   2.461070   0.000000
    25  H    4.111050   6.894034   4.282443   2.478599   0.000000
    26  H    2.455634   4.894492   7.753284   6.853902   4.599907
    27  H    3.062080   4.013975   7.718331   7.020525   4.852807
    28  H    2.609812   3.838652   8.512473   8.246644   6.382787
    29  H    3.772143   4.171346   9.449270   8.977950   6.868565
    30  H    2.321406   3.049007   7.094480   7.498672   6.302147
    31  H    3.680253   2.368023   7.201151   8.097277   7.235838
    32  H    4.197713   3.813492   9.363671   9.715418   8.301868
    33  H    5.053259   3.147606   9.478145  10.179983   8.981440
    34  H    4.889494   3.695003  10.346139  10.416806   8.641380
    35  H    5.202264   2.575747   9.916295  10.302082   8.766387
    36  H    4.923544   5.249476   3.453308   5.328901   5.902027
    37  H    6.068956   6.563377   2.302775   4.630190   5.858000
    38  H    5.512863   5.132083   3.418384   5.293533   5.887842
                   26         27         28         29         30
    26  H    0.000000
    27  H    1.749433   0.000000
    28  H    2.444440   3.058869   0.000000
    29  H    2.483905   2.450607   1.760567   0.000000
    30  H    4.081604   4.405092   2.483756   4.004012   0.000000
    31  H    5.485924   5.332502   3.887517   5.055840   1.766994
    32  H    5.007449   5.312667   2.607788   3.787499   2.277369
    33  H    6.094064   5.934235   3.884752   4.711357   2.946330
    34  H    4.672844   4.476177   2.640053   2.484899   3.776646
    35  H    5.447932   4.779009   3.666961   3.554034   3.901620
    36  H    7.240898   7.106380   6.967312   8.135355   4.866068
    37  H    8.211815   7.990340   8.347605   9.383617   6.453403
    38  H    7.516645   6.987669   7.515016   8.355703   5.713894
                   31         32         33         34         35
    31  H    0.000000
    32  H    2.837988   0.000000
    33  H    2.318788   1.771596   0.000000
    34  H    4.194683   2.371334   2.802834   0.000000
    35  H    3.578058   2.992240   2.307270   1.759130   0.000000
    36  H    4.356075   6.923745   6.660677   8.225193   7.554701
    37  H    6.029091   8.585501   8.332804   9.727670   9.017113
    38  H    5.031500   7.707656   7.235516   8.562967   7.656125
                   36         37         38
    36  H    0.000000
    37  H    1.758585   0.000000
    38  H    1.796882   1.760617   0.000000
 Stoichiometry    C16H19NO2
 Framework group  C1[X(C16H19NO2)]
 Deg. of freedom   108
 Full point group                 C1      NOp   1
 Largest Abelian subgroup         C1      NOp   1
 Largest concise Abelian subgroup C1      NOp   1
                         Standard orientation:                         
 ---------------------------------------------------------------------
 Center     Atomic      Atomic             Coordinates (Angstroms)
 Number     Number       Type             X           Y           Z
 ---------------------------------------------------------------------
      1          6           0       -3.035554    0.996713    0.047354
      2          6           0       -4.232861    0.294683    0.281166
      3          6           0       -4.250527   -1.098017    0.347531
      4          6           0       -3.068398   -1.813103    0.192957
      5          6           0       -1.867342   -1.136691   -0.019714
      6          6           0       -1.841891    0.264055   -0.114760
      7          6           0       -0.537654    0.902604   -0.425025
      8          8           0       -0.763492   -1.941637   -0.146647
      9          6           0        0.454554   -1.260733    0.172791
     10          6           0        0.617589   -0.032677   -0.703002
     11          6           0        1.610782   -2.224706   -0.075520
     12          6           0        2.945076   -1.538919    0.189278
     13          7           0        3.114399   -0.330396   -0.634102
     14          6           0        1.987233    0.627225   -0.517902
     15          6           0        2.251453    1.343393    0.808683
     16          6           0        3.772305    1.353868    0.936634
     17          6           0        4.280705    0.445473   -0.178295
     18          8           0       -0.420510    2.121856   -0.508185
     19          6           0       -3.099374    2.497918   -0.031630
     20          1           0        0.513728   -0.325095   -1.758883
     21          1           0        0.430328   -1.002334    1.241157
     22          1           0        2.103162    1.368689   -1.322494
     23          1           0       -5.170273    0.834882    0.405285
     24          1           0       -5.186567   -1.623453    0.520121
     25          1           0       -3.078938   -2.898809    0.246584
     26          1           0        1.504974   -3.105625    0.569261
     27          1           0        1.572412   -2.604114   -1.105390
     28          1           0        3.020969   -1.317421    1.261629
     29          1           0        3.752092   -2.243656   -0.044948
     30          1           0        1.812044    0.815070    1.661664
     31          1           0        1.854953    2.363743    0.811936
     32          1           0        4.068645    0.977546    1.921979
     33          1           0        4.173684    2.366920    0.827831
     34          1           0        5.122639   -0.179196    0.140331
     35          1           0        4.641414    1.058093   -1.013825
     36          1           0       -2.460700    2.950542    0.733206
     37          1           0       -4.116182    2.865753    0.146000
     38          1           0       -2.803736    2.842973   -1.027345
 ---------------------------------------------------------------------
 Rotational constants (GHZ):           0.8403704           0.2622732           0.2106586
 Standard basis: STO-3G (5D, 7F)
 There are   114 symmetry adapted cartesian basis functions of A   symmetry.
 There are   114 symmetry adapted basis functions of A   symmetry.
   114 basis functions,   342 primitive gaussians,   114 cartesian basis functions
    69 alpha electrons       69 beta electrons
       nuclear repulsion energy      1489.6916107411 Hartrees.
 NAtoms=   38 NActive=   38 NUniq=   38 SFac= 1.00D+00 NAtFMM=   60 NAOKFM=F Big=F
 Integral buffers will be    131072 words long.
 Raffenetti 1 integral format.
 Two-electron integral symmetry is turned on.
 One-electron integrals computed using PRISM.
 NBasis=   114 RedAO= T EigKep=  1.74D-01  NBF=   114
 NBsUse=   114 1.00D-06 EigRej= -1.00D+00 NBFU=   114
 ExpMin= 1.69D-01 ExpMax= 1.31D+02 ExpMxC= 1.31D+02 IAcc=3 IRadAn=         5 AccDes= 0.00D+00
 Harris functional with IExCor=  205 and IRadAn=       5 diagonalized for initial guess.
 HarFok:  IExCor=  205 AccDes= 0.00D+00 IRadAn=         5 IDoV= 1 UseB2=F ITyADJ=14
 ICtDFT=  3500011 ScaDFX=  1.000000  1.000000  1.000000  1.000000
 FoFCou: FMM=F IPFlag=           0 FMFlag=      100000 FMFlg1=           0
         NFxFlg=           0 DoJE=T BraDBF=F KetDBF=T FulRan=T
         wScrn=  0.000000 ICntrl=       500 IOpCl=  0 I1Cent=   200000004 NGrid=           0
         NMat0=    1 NMatS0=      1 NMatT0=    0 NMatD0=    1 NMtDS0=    0 NMtDT0=    0
 Petite list used in FoFCou.
 Requested convergence on RMS density matrix=1.00D-08 within 128 cycles.
 Requested convergence on MAX density matrix=1.00D-06.
 Requested convergence on             energy=1.00D-06.
 No special actions if energy rises.
 Integral accuracy reduced to 1.0D-05 until final iterations.
 Initial convergence to 1.0D-05 achieved.  Increase integral accuracy.
 SCF Done:  E(RHF) =  -811.058925663     A.U. after   17 cycles
            NFock= 17  Conv=0.76D-08     -V/T= 2.0093
 Range of M.O.s used for correlation:     1   114
 NBasis=   114 NAE=    69 NBE=    69 NFC=     0 NFV=     0
 NROrb=    114 NOA=    69 NOB=    69 NVA=    45 NVB=    45
          Differentiating once with respect to magnetic field using GIAOs.
          Electric field/nuclear overlap derivatives assumed to be zero.
 FoFCou: FMM=F IPFlag=           0 FMFlag=      100000 FMFlg1=           0
         NFxFlg=           0 DoJE=F BraDBF=F KetDBF=T FulRan=T
         wScrn=  0.000000 ICntrl=      6100 IOpCl=  0 I1Cent=           7 NGrid=          38
         NMat0=    1 NMatS0=      1 NMatT0=    0 NMatD0=    1 NMtDS0=    0 NMtDT0=    0
 Symmetry not used in FoFCou.
 FoFJK:  IHMeth= 1 ICntrl=    6127 DoSepK=F KAlg= 0 I1Cent=           0 FoldK=F
 IRaf=         1 NMat=       1 IRICut=       1 DoRegI=T DoRafI=F ISym2E= 0 IDoP0=0 IntGTp=1.
          There are     3 degrees of freedom in the 1st order CPHF.  IDoFFX=0 NUNeed=     3.
      3 vectors produced by pass  0 Test12= 1.04D-13 3.33D-08 XBig12= 2.83D+01 1.62D+00.
 AX will form     3 AO Fock derivatives at one time.
      3 vectors produced by pass  1 Test12= 1.04D-13 3.33D-08 XBig12= 1.73D-01 2.40D-01.
      3 vectors produced by pass  2 Test12= 1.04D-13 3.33D-08 XBig12= 3.57D-03 2.21D-02.
      3 vectors produced by pass  3 Test12= 1.04D-13 3.33D-08 XBig12= 1.12D-04 2.25D-03.
      3 vectors produced by pass  4 Test12= 1.04D-13 3.33D-08 XBig12= 1.46D-06 1.51D-04.
      3 vectors produced by pass  5 Test12= 1.04D-13 3.33D-08 XBig12= 1.65D-08 1.83D-05.
      3 vectors produced by pass  6 Test12= 1.04D-13 3.33D-08 XBig12= 3.10D-10 3.19D-06.
      3 vectors produced by pass  7 Test12= 1.04D-13 3.33D-08 XBig12= 4.65D-12 2.99D-07.
      1 vectors produced by pass  8 Test12= 1.04D-13 3.33D-08 XBig12= 8.85D-14 4.78D-08.
 InvSVY:  IOpt=1 It=  1 EMax= 5.55D-17
 Solved reduced A of dimension    25 with     3 vectors.
 Calculating GIAO nuclear magnetic shielding tensors.
 SCF GIAO Magnetic shielding tensor (ppm):
      1  C    Isotropic =   113.8456   Anisotropy =   169.4469
   XX=    84.8214   YX=    10.3502   ZX=    23.6375
   XY=    14.5439   YY=    34.5973   ZY=     8.4851
   XZ=    23.6781   YZ=    11.3166   ZZ=   222.1181
   Eigenvalues:    31.5812    83.1454   226.8102
      2  C    Isotropic =   123.7234   Anisotropy =   142.9940
   XX=    59.7169   YX=    39.6063   ZX=    24.1656
   XY=    34.1334   YY=    96.3510   ZY=     0.4811
   XZ=    23.2936   YZ=     2.3281   ZZ=   215.1022
   Eigenvalues:    34.7455   117.3719   219.0527
      3  C    Isotropic =   117.2459   Anisotropy =   168.5134
   XX=    45.3645   YX=   -33.0049   ZX=    31.6458
   XY=   -35.1369   YY=    82.2207   ZY=    12.2196
   XZ=    29.9697   YZ=    11.8288   ZZ=   224.1524
   Eigenvalues:    19.8402   102.3093   229.5882
      4  C    Isotropic =   131.2611   Anisotropy =   145.8156
   XX=   118.7949   YX=     0.5452   ZX=    16.6495
   XY=    -3.6299   YY=    49.5972   ZY=     8.7365
   XZ=    15.7463   YZ=    13.9061   ZZ=   225.3912
   Eigenvalues:    48.7743   116.5375   228.4715
      5  C    Isotropic =   104.2303   Anisotropy =   133.1418
   XX=    59.5772   YX=    19.7748   ZX=    18.1386
   XY=     9.4973   YY=    64.2884   ZY=     7.2935
   XZ=    24.2303   YZ=     8.2559   ZZ=   188.8252
   Eigenvalues:    46.1636    73.5358   192.9915
      6  C    Isotropic =   130.4902   Anisotropy =   148.7795
   XX=    79.6340   YX=   -17.1487   ZX=    29.8689
   XY=   -14.3611   YY=    89.0307   ZY=    11.9532
   XZ=    33.2195   YZ=     6.1934   ZZ=   222.8061
   Eigenvalues:    61.9005    99.8936   229.6765
      7  C    Isotropic =    90.7054   Anisotropy =   137.2618
   XX=   -30.5658   YX=    17.2019   ZX=    51.9820
   XY=    17.4609   YY=   132.3342   ZY=    -4.7689
   XZ=    48.4922   YZ=    -4.3444   ZZ=   170.3478
   Eigenvalues:   -44.2445   134.1475   182.2133
      8  O    Isotropic =   338.6298   Anisotropy =    89.4234
   XX=   292.4403   YX=   -33.4929   ZX=    -1.1194
   XY=   -50.9086   YY=   331.5987   ZY=     2.4470
   XZ=    24.0269   YZ=    38.7398   ZZ=   391.8504
   Eigenvalues:   262.1494   355.4945   398.2454
      9  C    Isotropic =   187.3921   Anisotropy =    52.0523
   XX=   213.6332   YX=    13.7536   ZX=     9.7155
   XY=    15.1771   YY=   181.2836   ZY=     3.1235
   XZ=    13.4434   YZ=     7.3528   ZZ=   167.2595
   Eigenvalues:   164.2764   175.8063   222.0936
     10  C    Isotropic =   209.6264   Anisotropy =    11.3445
   XX=   214.1239   YX=     0.0127   ZX=     6.4303
   XY=    -3.7069   YY=   206.7223   ZY=     1.0580
   XZ=     4.1601   YZ=     4.7191   ZZ=   208.0329
   Eigenvalues:   202.3100   209.3798   217.1894
     11  C    Isotropic =   217.9966   Anisotropy =    14.2482
   XX=   226.5971   YX=    -2.0848   ZX=     1.9821
   XY=    -3.4076   YY=   218.6365   ZY=     3.4145
   XZ=     0.8260   YZ=    -0.3652   ZZ=   208.7562
   Eigenvalues:   208.3432   218.1512   227.4954
     12  C    Isotropic =   203.2142   Anisotropy =    37.7591
   XX=   198.1942   YX=     7.7044   ZX=     1.7733
   XY=    10.3267   YY=   219.2179   ZY=   -14.2004
   XZ=    -0.7578   YZ=   -16.7052   ZZ=   192.2304
   Eigenvalues:   183.8410   197.4146   228.3869
     13  N    Isotropic =   282.8306   Anisotropy =    58.8340
   XX=   321.5577   YX=    -1.1975   ZX=     5.7281
   XY=    -0.0579   YY=   277.0449   ZY=    17.8703
   XZ=     6.1618   YZ=     9.4001   ZZ=   249.8892
   Eigenvalues:   243.8017   282.6369   322.0533
     14  C    Isotropic =   193.7902   Anisotropy =    41.4149
   XX=   210.9444   YX=   -13.8794   ZX=     1.4738
   XY=   -21.6919   YY=   189.6426   ZY=    11.7570
   XZ=     6.9720   YZ=    17.9075   ZZ=   180.7837
   Eigenvalues:   165.0606   194.9099   221.4002
     15  C    Isotropic =   216.0707   Anisotropy =    28.4798
   XX=   230.8199   YX=    -1.5930   ZX=     7.2201
   XY=     4.2715   YY=   201.8710   ZY=    13.7238
   XZ=     4.9502   YZ=    20.0460   ZZ=   215.5211
   Eigenvalues:   190.3511   222.8037   235.0572
     16  C    Isotropic =   216.0725   Anisotropy =    25.2234
   XX=   232.3624   YX=    -2.0032   ZX=    -0.4210
   XY=    -3.4469   YY=   206.2539   ZY=    16.5288
   XZ=     0.7187   YZ=    19.1152   ZZ=   209.6010
   Eigenvalues:   189.9214   225.4079   232.8881
     17  C    Isotropic =   197.7378   Anisotropy =    50.1649
   XX=   217.4266   YX=    12.9439   ZX=     5.4762
   XY=    22.8562   YY=   192.4958   ZY=    16.8972
   XZ=     6.8276   YZ=    19.8043   ZZ=   183.2908
   Eigenvalues:   168.0512   193.9811   231.1810
     18  O    Isotropic =  -340.5609   Anisotropy =  1255.2223
   XX=  -352.7696   YX=  -114.2216   ZX=   210.7890
   XY=   -71.3787   YY= -1118.2442   ZY=    79.3040
   XZ=   184.5366   YZ=    40.0954   ZZ=   449.3312
   Eigenvalues: -1133.7844  -384.1522   496.2540
     19  C    Isotropic =   218.0723   Anisotropy =    23.2768
   XX=   215.1033   YX=    -0.3734   ZX=    -1.4754
   XY=    -0.6868   YY=   233.4825   ZY=    -1.4879
   XZ=    -1.7648   YZ=    -1.8140   ZZ=   205.6313
   Eigenvalues:   205.2575   215.3693   233.5902
     20  H    Isotropic =    30.8924   Anisotropy =    10.8007
   XX=    29.1200   YX=     1.3783   ZX=     3.9505
   XY=     1.4123   YY=    26.1520   ZY=     0.2311
   XZ=     0.1569   YZ=     2.3257   ZZ=    37.4050
   Eigenvalues:    25.5812    29.0030    38.0928
     21  H    Isotropic =    31.5981   Anisotropy =     5.1950
   XX=    32.2680   YX=     0.8409   ZX=    -0.5352
   XY=     1.8484   YY=    27.5769   ZY=     2.0897
   XZ=     1.2451   YZ=    -1.0783   ZZ=    34.9494
   Eigenvalues:    27.1983    32.5345    35.0614
     22  H    Isotropic =    30.4940   Anisotropy =    11.8559
   XX=    28.2029   YX=     0.2513   ZX=     1.3923
   XY=     1.0630   YY=    31.7463   ZY=    -7.3643
   XZ=     0.3640   YZ=    -6.1466   ZZ=    31.5327
   Eigenvalues:    24.5590    28.5250    38.3979
     23  H    Isotropic =    25.8901   Anisotropy =     6.0350
   XX=    28.0674   YX=     1.5433   ZX=    -1.0752
   XY=     1.4980   YY=    28.3543   ZY=    -0.6470
   XZ=    -1.2585   YZ=    -0.5478   ZZ=    21.2486
   Eigenvalues:    21.0379    26.7190    29.9135
     24  H    Isotropic =    25.2871   Anisotropy =     3.6587
   XX=    27.1112   YX=    -0.3354   ZX=    -0.7230
   XY=    -0.7119   YY=    27.2431   ZY=    -0.1630
   XZ=    -0.7619   YZ=    -0.2111   ZZ=    21.5070
   Eigenvalues:    21.3992    26.7358    27.7262
     25  H    Isotropic =    25.6861   Anisotropy =     7.1529
   XX=    29.6265   YX=     1.7258   ZX=    -1.1881
   XY=     1.1951   YY=    27.1616   ZY=    -0.4046
   XZ=    -1.2771   YZ=    -0.1447   ZZ=    20.2703
   Eigenvalues:    20.1096    26.4941    30.4547
     26  H    Isotropic =    31.5980   Anisotropy =    14.9431
   XX=    29.1937   YX=     0.2245   ZX=    -0.1776
   XY=     0.7457   YY=    38.6190   ZY=    -5.8972
   XZ=    -0.0403   YZ=    -7.1474   ZZ=    26.9812
   Eigenvalues:    24.0575    29.1764    41.5600
     27  H    Isotropic =    31.3538   Anisotropy =    12.5836
   XX=    28.7658   YX=    -0.0305   ZX=     0.5155
   XY=     0.0442   YY=    32.1579   ZY=     6.9474
   XZ=    -0.2334   YZ=     7.2069   ZZ=    33.1376
   Eigenvalues:    25.5511    28.7673    39.7429
     28  H    Isotropic =    32.5197   Anisotropy =     8.1656
   XX=    29.9497   YX=     1.0241   ZX=     3.1396
   XY=     1.5009   YY=    31.6202   ZY=    -1.9903
   XZ=     4.1092   YZ=    -2.0211   ZZ=    35.9893
   Eigenvalues:    27.2972    32.2985    37.9635
     29  H    Isotropic =    31.4890   Anisotropy =    14.5103
   XX=    35.3773   YX=    -5.6613   ZX=    -0.9116
   XY=    -5.9501   YY=    35.2753   ZY=     0.8460
   XZ=    -0.3386   YZ=    -0.0494   ZZ=    23.8142
   Eigenvalues:    23.7797    29.5247    41.1625
     30  H    Isotropic =    32.8689   Anisotropy =     8.1841
   XX=    32.7147   YX=     2.7926   ZX=    -3.7268
   XY=     3.4292   YY=    29.3000   ZY=    -0.0937
   XZ=    -1.7574   YZ=    -0.2520   ZZ=    36.5918
   Eigenvalues:    27.2754    33.0063    38.3249
     31  H    Isotropic =    32.1584   Anisotropy =    14.7827
   XX=    31.7770   YX=    -5.0603   ZX=    -0.2276
   XY=    -4.0760   YY=    39.4073   ZY=     2.7650
   XZ=     2.2685   YZ=     4.2886   ZZ=    25.2908
   Eigenvalues:    23.8495    30.6121    42.0135
     32  H    Isotropic =    32.1687   Anisotropy =    13.7766
   XX=    30.9483   YX=    -0.3910   ZX=     5.4130
   XY=    -0.1431   YY=    27.3396   ZY=    -0.5387
   XZ=     5.9543   YZ=    -0.4715   ZZ=    38.2181
   Eigenvalues:    27.3162    27.8367    41.3531
     33  H    Isotropic =    32.0578   Anisotropy =    15.6395
   XX=    31.6496   YX=     6.2214   ZX=     0.1325
   XY=     6.0371   YY=    38.6758   ZY=     1.9564
   XZ=     0.7141   YZ=     2.3252   ZZ=    25.8479
   Eigenvalues:    25.4086    28.2806    42.4841
     34  H    Isotropic =    31.7210   Anisotropy =    13.8862
   XX=    39.7029   YX=    -4.2453   ZX=     1.1391
   XY=    -2.9087   YY=    29.6780   ZY=     0.3258
   XZ=     1.8752   YZ=    -0.1252   ZZ=    25.7820
   Eigenvalues:    25.5497    28.6348    40.9784
     35  H    Isotropic =    31.3668   Anisotropy =    14.6365
   XX=    32.4904   YX=     4.3984   ZX=    -6.5095
   XY=     4.6938   YY=    29.5742   ZY=    -4.1433
   XZ=    -5.5033   YZ=    -2.9422   ZZ=    32.0358
   Eigenvalues:    25.8984    27.0776    41.1244
     36  H    Isotropic =    30.9117   Anisotropy =    10.5996
   XX=    31.7313   YX=     2.7685   ZX=     3.3962
   XY=     1.9350   YY=    32.8319   ZY=     3.3202
   XZ=     2.4821   YZ=     6.4484   ZZ=    28.1717
   Eigenvalues:    24.8273    29.9297    37.9780
     37  H    Isotropic =    30.9846   Anisotropy =    12.2364
   XX=    36.7891   YX=    -3.4367   ZX=    -2.0383
   XY=    -4.1751   YY=    32.0217   ZY=     0.2896
   XZ=    -2.0586   YZ=     0.2273   ZZ=    24.1430
   Eigenvalues:    23.8034    30.0082    39.1422
     38  H    Isotropic =    31.0261   Anisotropy =    10.6890
   XX=    29.2998   YX=    -0.1424   ZX=    -2.9090
   XY=     0.2323   YY=    31.5596   ZY=    -4.1769
   XZ=    -1.8289   YZ=    -7.6201   ZZ=    32.2188
   Eigenvalues:    25.3032    29.6229    38.1521
 End of Minotr F.D. properties file   721 does not exist.
 End of Minotr F.D. properties file   722 does not exist.
 End of Minotr F.D. properties file   788 does not exist.

 **********************************************************************

            Population analysis using the SCF Density.

 **********************************************************************

 Orbital symmetries:
       Occupied  (A) (A) (A) (A) (A) (A) (A) (A) (A) (A) (A) (A)
                 (A) (A) (A) (A) (A) (A) (A) (A) (A) (A) (A) (A)
                 (A) (A) (A) (A) (A) (A) (A) (A) (A) (A) (A) (A)
                 (A) (A) (A) (A) (A) (A) (A) (A) (A) (A) (A) (A)
                 (A) (A) (A) (A) (A) (A) (A) (A) (A) (A) (A) (A)
                 (A) (A) (A) (A) (A) (A) (A) (A) (A)
       Virtual   (A) (A) (A) (A) (A) (A) (A) (A) (A) (A) (A) (A)
                 (A) (A) (A) (A) (A) (A) (A) (A) (A) (A) (A) (A)
                 (A) (A) (A) (A) (A) (A) (A) (A) (A) (A) (A) (A)
                 (A) (A) (A) (A) (A) (A) (A) (A) (A)
 The electronic state is 1-A.
 Alpha  occ. eigenvalues --  -20.29963 -20.26330 -15.31463 -11.11659 -11.11328
 Alpha  occ. eigenvalues --  -11.09739 -11.08027 -11.07746 -11.06714 -11.06556
 Alpha  occ. eigenvalues --  -11.05381 -11.05282 -11.04372 -11.04037 -11.04012
 Alpha  occ. eigenvalues --  -11.03998 -11.02937 -11.02270 -11.01947  -1.34532
 Alpha  occ. eigenvalues --   -1.31670  -1.19929  -1.09817  -1.05253  -1.02452
 Alpha  occ. eigenvalues --   -0.99178  -0.97949  -0.95314  -0.92041  -0.88248
 Alpha  occ. eigenvalues --   -0.84223  -0.80813  -0.77958  -0.75429  -0.74170
 Alpha  occ. eigenvalues --   -0.71863  -0.69421  -0.65363  -0.63020  -0.62246
 Alpha  occ. eigenvalues --   -0.61027  -0.60207  -0.59388  -0.57386  -0.56406
 Alpha  occ. eigenvalues --   -0.55022  -0.54358  -0.53700  -0.52721  -0.51793
 Alpha  occ. eigenvalues --   -0.51065  -0.49876  -0.49370  -0.47867  -0.47564
 Alpha  occ. eigenvalues --   -0.46209  -0.45074  -0.44715  -0.43672  -0.43088
 Alpha  occ. eigenvalues --   -0.42631  -0.41531  -0.40339  -0.39407  -0.36585
 Alpha  occ. eigenvalues --   -0.31390  -0.28751  -0.27403  -0.24611
 Alpha virt. eigenvalues --    0.21215   0.26825   0.34656   0.49175   0.51267
 Alpha virt. eigenvalues --    0.52121   0.54124   0.56179   0.57992   0.60163
 Alpha virt. eigenvalues --    0.60558   0.60621   0.62746   0.63544   0.65189
 Alpha virt. eigenvalues --    0.65525   0.67764   0.68124   0.68641   0.69431
 Alpha virt. eigenvalues --    0.70359   0.71392   0.72364   0.72889   0.73635
 Alpha virt. eigenvalues --    0.73730   0.74187   0.74511   0.75629   0.77286
 Alpha virt. eigenvalues --    0.77779   0.78385   0.79361   0.80191   0.81486
 Alpha virt. eigenvalues --    0.82062   0.84062   0.86092   0.86725   0.86878
 Alpha virt. eigenvalues --    0.90051   0.93418   1.00915   1.11956   1.13391
          Condensed to atoms (all electrons):
               1          2          3          4          5          6
     1  C    4.757894   0.505238  -0.028655  -0.009934  -0.027799   0.497148
     2  C    0.505238   4.807428   0.504219  -0.031473  -0.011338  -0.031196
     3  C   -0.028655   0.504219   4.758993   0.508755  -0.029301  -0.009515
     4  C   -0.009934  -0.031473   0.508755   4.806500   0.499342  -0.031834
     5  C   -0.027799  -0.011338  -0.029301   0.499342   4.756285   0.488831
     6  C    0.497148  -0.031196  -0.009515  -0.031834   0.488831   4.874251
     7  C   -0.023257   0.000761   0.000018   0.000794  -0.029554   0.389152
     8  O    0.000241   0.000008   0.000350  -0.027100   0.293082  -0.016654
     9  C    0.000028   0.000000  -0.000020   0.001707  -0.040830  -0.007532
    10  C    0.000615  -0.000007  -0.000000  -0.000032  -0.004850  -0.035113
    11  C    0.000000   0.000000   0.000000  -0.000014   0.001597  -0.000002
    12  C   -0.000000  -0.000000  -0.000000   0.000000  -0.000015  -0.000000
    13  N    0.000000  -0.000000  -0.000000   0.000000  -0.000000  -0.000002
    14  C   -0.000004   0.000000  -0.000000   0.000000   0.000016   0.000580
    15  C   -0.000000   0.000000  -0.000000   0.000000   0.000001   0.000007
    16  C   -0.000000   0.000000   0.000000   0.000000  -0.000000   0.000000
    17  C   -0.000000   0.000000  -0.000000   0.000000  -0.000000   0.000000
    18  O   -0.001017  -0.000004  -0.000000  -0.000002   0.000322  -0.027175
    19  C    0.381515  -0.030209   0.000878   0.000011   0.000710  -0.024013
    20  H   -0.000015   0.000000   0.000000  -0.000007   0.000041  -0.000100
    21  H   -0.000013  -0.000001   0.000000   0.000091  -0.003123   0.000700
    22  H   -0.000000  -0.000000   0.000000  -0.000000  -0.000001   0.000002
    23  H   -0.025053   0.394204  -0.026843   0.001421   0.000049   0.001260
    24  H    0.001319  -0.024811   0.393605  -0.025142   0.001373   0.000009
    25  H    0.000036   0.001381  -0.024627   0.393472  -0.025283   0.001226
    26  H   -0.000000   0.000000   0.000000  -0.000001   0.000010   0.000000
    27  H    0.000000  -0.000000   0.000000  -0.000001   0.000021  -0.000000
    28  H   -0.000000   0.000000  -0.000000   0.000000  -0.000000  -0.000000
    29  H    0.000000  -0.000000   0.000000  -0.000000   0.000000  -0.000000
    30  H    0.000000  -0.000000   0.000000  -0.000000   0.000000  -0.000011
    31  H   -0.000000   0.000000   0.000000   0.000000  -0.000000   0.000003
    32  H    0.000000  -0.000000  -0.000000  -0.000000   0.000000  -0.000000
    33  H   -0.000000   0.000000  -0.000000   0.000000  -0.000000   0.000000
    34  H    0.000000  -0.000000  -0.000000  -0.000000  -0.000000  -0.000000
    35  H    0.000000   0.000000   0.000000  -0.000000   0.000000  -0.000000
    36  H   -0.021146   0.000770  -0.000023   0.000002   0.000002  -0.001932
    37  H   -0.020517  -0.005655   0.000061  -0.000000  -0.000016   0.001130
    38  H   -0.021116   0.000669  -0.000024   0.000003  -0.000001  -0.001752
               7          8          9         10         11         12
     1  C   -0.023257   0.000241   0.000028   0.000615   0.000000  -0.000000
     2  C    0.000761   0.000008   0.000000  -0.000007   0.000000  -0.000000
     3  C    0.000018   0.000350  -0.000020  -0.000000   0.000000  -0.000000
     4  C    0.000794  -0.027100   0.001707  -0.000032  -0.000014   0.000000
     5  C   -0.029554   0.293082  -0.040830  -0.004850   0.001597  -0.000015
     6  C    0.389152  -0.016654  -0.007532  -0.035113  -0.000002  -0.000000
     7  C    4.769027  -0.001654  -0.025752   0.356857   0.000824   0.000002
     8  O   -0.001654   7.794340   0.262624  -0.017384  -0.018638   0.000255
     9  C   -0.025752   0.262624   4.742102   0.358549   0.361563  -0.022218
    10  C    0.356857  -0.017384   0.358549   4.818683  -0.026147  -0.004106
    11  C    0.000824  -0.018638   0.361563  -0.026147   4.754353   0.362717
    12  C    0.000002   0.000255  -0.022218  -0.004106   0.362717   4.709481
    13  N    0.000363   0.000000  -0.002632  -0.016738  -0.019396   0.324100
    14  C   -0.019743   0.000235  -0.020439   0.360267  -0.004044  -0.030952
    15  C   -0.002047   0.000000  -0.001352  -0.019276   0.000036  -0.001266
    16  C    0.000011   0.000000   0.000005   0.000769  -0.000014  -0.000680
    17  C   -0.000009   0.000000   0.000027   0.001117   0.001073  -0.034945
    18  O    0.432289  -0.000000   0.000293  -0.025806  -0.000001  -0.000000
    19  C   -0.002553  -0.000001  -0.000000   0.000007  -0.000000   0.000000
    20  H   -0.024305  -0.000838  -0.022651   0.378476  -0.002369   0.000115
    21  H   -0.002542  -0.018450   0.376612  -0.025408  -0.024881  -0.001500
    22  H   -0.001207  -0.000005   0.001210  -0.024063   0.000021   0.001652
    23  H   -0.000014   0.000000  -0.000000   0.000000   0.000000  -0.000000
    24  H    0.000001  -0.000005   0.000000  -0.000000  -0.000000   0.000000
    25  H   -0.000018  -0.001104   0.000034   0.000000  -0.000002   0.000000
    26  H   -0.000020  -0.000466  -0.021585   0.001337   0.382016  -0.019848
    27  H    0.000005  -0.000696  -0.022059  -0.002236   0.381518  -0.020868
    28  H   -0.000002   0.000001  -0.002064   0.000059  -0.025433   0.377324
    29  H    0.000001  -0.000004   0.001280   0.000010  -0.021153   0.383481
    30  H    0.000056  -0.000001  -0.000424  -0.002698   0.000043  -0.000359
    31  H   -0.000164  -0.000000   0.000016   0.000218  -0.000002   0.000001
    32  H   -0.000000  -0.000000   0.000002  -0.000020   0.000001  -0.000165
    33  H   -0.000000   0.000000  -0.000000  -0.000009   0.000000  -0.000002
    34  H    0.000000  -0.000000  -0.000000  -0.000022   0.000045  -0.004788
    35  H   -0.000000  -0.000000  -0.000001   0.000002  -0.000023   0.001844
    36  H   -0.000054  -0.000000  -0.000000  -0.000003  -0.000000  -0.000000
    37  H    0.000014   0.000000   0.000000   0.000000   0.000000  -0.000000
    38  H   -0.000074  -0.000000  -0.000000  -0.000002   0.000000   0.000000
              13         14         15         16         17         18
     1  C    0.000000  -0.000004  -0.000000  -0.000000  -0.000000  -0.001017
     2  C   -0.000000   0.000000   0.000000   0.000000   0.000000  -0.000004
     3  C   -0.000000  -0.000000  -0.000000   0.000000  -0.000000  -0.000000
     4  C    0.000000   0.000000   0.000000   0.000000   0.000000  -0.000002
     5  C   -0.000000   0.000016   0.000001  -0.000000  -0.000000   0.000322
     6  C   -0.000002   0.000580   0.000007   0.000000   0.000000  -0.027175
     7  C    0.000363  -0.019743  -0.002047   0.000011  -0.000009   0.432289
     8  O    0.000000   0.000235   0.000000   0.000000   0.000000  -0.000000
     9  C   -0.002632  -0.020439  -0.001352   0.000005   0.000027   0.000293
    10  C   -0.016738   0.360267  -0.019276   0.000769   0.001117  -0.025806
    11  C   -0.019396  -0.004044   0.000036  -0.000014   0.001073  -0.000001
    12  C    0.324100  -0.030952  -0.001266  -0.000680  -0.034945  -0.000000
    13  N    6.509300   0.324439  -0.035089  -0.032021   0.329848  -0.000000
    14  C    0.324439   4.738945   0.360460  -0.034305  -0.047957  -0.001248
    15  C   -0.035089   0.360460   4.782791   0.364294  -0.033286  -0.000347
    16  C   -0.032021  -0.034305   0.364294   4.773833   0.359530   0.000002
    17  C    0.329848  -0.047957  -0.033286   0.359530   4.729593  -0.000000
    18  O   -0.000000  -0.001248  -0.000347   0.000002  -0.000000   7.857310
    19  C    0.000000  -0.000000  -0.000000  -0.000000  -0.000000  -0.001638
    20  H   -0.000616  -0.021149   0.001094  -0.000018  -0.000001  -0.000257
    21  H    0.000067  -0.000944  -0.000405  -0.000005  -0.000007   0.000008
    22  H   -0.022992   0.382990  -0.026424  -0.000909  -0.001323   0.000220
    23  H    0.000000  -0.000000  -0.000000  -0.000000  -0.000000   0.000000
    24  H   -0.000000   0.000000   0.000000   0.000000   0.000000  -0.000000
    25  H    0.000000  -0.000000  -0.000000  -0.000000   0.000000   0.000000
    26  H    0.000819   0.000007  -0.000000   0.000001  -0.000023   0.000000
    27  H   -0.000750   0.000104  -0.000000  -0.000000   0.000004  -0.000000
    28  H   -0.020962  -0.001336   0.000092   0.000575  -0.004013   0.000000
    29  H   -0.021777   0.001609  -0.000029  -0.000063  -0.001833  -0.000000
    30  H   -0.000041  -0.021211   0.382906  -0.022081   0.001086   0.000004
    31  H    0.001078  -0.018871   0.384135  -0.020370   0.001329   0.000056
    32  H    0.000569   0.001373  -0.021678   0.384032  -0.021235  -0.000000
    33  H    0.001005   0.000960  -0.020690   0.384625  -0.020720   0.000000
    34  H   -0.015553   0.001828   0.001281  -0.020506   0.383034   0.000000
    35  H   -0.023671  -0.000405   0.000276  -0.024840   0.382020   0.000000
    36  H   -0.000000   0.000000  -0.000000   0.000000   0.000000  -0.000415
    37  H    0.000000  -0.000000   0.000000  -0.000000  -0.000000   0.000063
    38  H   -0.000000  -0.000000   0.000000  -0.000000   0.000000  -0.000278
              19         20         21         22         23         24
     1  C    0.381515  -0.000015  -0.000013  -0.000000  -0.025053   0.001319
     2  C   -0.030209   0.000000  -0.000001  -0.000000   0.394204  -0.024811
     3  C    0.000878   0.000000   0.000000   0.000000  -0.026843   0.393605
     4  C    0.000011  -0.000007   0.000091  -0.000000   0.001421  -0.025142
     5  C    0.000710   0.000041  -0.003123  -0.000001   0.000049   0.001373
     6  C   -0.024013  -0.000100   0.000700   0.000002   0.001260   0.000009
     7  C   -0.002553  -0.024305  -0.002542  -0.001207  -0.000014   0.000001
     8  O   -0.000001  -0.000838  -0.018450  -0.000005   0.000000  -0.000005
     9  C   -0.000000  -0.022651   0.376612   0.001210  -0.000000   0.000000
    10  C    0.000007   0.378476  -0.025408  -0.024063   0.000000  -0.000000
    11  C   -0.000000  -0.002369  -0.024881   0.000021   0.000000  -0.000000
    12  C    0.000000   0.000115  -0.001500   0.001652  -0.000000   0.000000
    13  N    0.000000  -0.000616   0.000067  -0.022992   0.000000  -0.000000
    14  C   -0.000000  -0.021149  -0.000944   0.382990  -0.000000   0.000000
    15  C   -0.000000   0.001094  -0.000405  -0.026424  -0.000000   0.000000
    16  C   -0.000000  -0.000018  -0.000005  -0.000909  -0.000000   0.000000
    17  C   -0.000000  -0.000001  -0.000007  -0.001323  -0.000000   0.000000
    18  O   -0.001638  -0.000257   0.000008   0.000220   0.000000  -0.000000
    19  C    4.712962   0.000000  -0.000000   0.000000  -0.004258  -0.000016
    20  H    0.000000   0.616855   0.001840  -0.003973  -0.000000  -0.000000
    21  H   -0.000000   0.001840   0.645088  -0.000020  -0.000000   0.000000
    22  H    0.000000  -0.003973  -0.000020   0.631034   0.000000  -0.000000
    23  H   -0.004258  -0.000000  -0.000000   0.000000   0.605134  -0.003751
    24  H   -0.000016  -0.000000   0.000000  -0.000000  -0.003751   0.593883
    25  H    0.000000  -0.000000   0.000001  -0.000000  -0.000032  -0.003713
    26  H   -0.000000   0.000010  -0.002825   0.000003  -0.000000  -0.000000
    27  H   -0.000000   0.000195   0.001822  -0.000020   0.000000  -0.000000
    28  H   -0.000000   0.000005   0.000316  -0.000056  -0.000000   0.000000
    29  H   -0.000000  -0.000013  -0.000001  -0.000033   0.000000  -0.000000
    30  H    0.000000   0.000009  -0.000425   0.001829   0.000000  -0.000000
    31  H    0.000000  -0.000013   0.000016  -0.004394  -0.000000  -0.000000
    32  H   -0.000000   0.000001   0.000003  -0.000012   0.000000  -0.000000
    33  H    0.000000   0.000001  -0.000000   0.000071  -0.000000   0.000000
    34  H    0.000000  -0.000000   0.000000   0.000008   0.000000  -0.000000
    35  H   -0.000000   0.000001   0.000000   0.000276   0.000000  -0.000000
    36  H    0.380808  -0.000000   0.000000   0.000000   0.000070   0.000000
    37  H    0.382773  -0.000000  -0.000000  -0.000000   0.000167  -0.000003
    38  H    0.380532   0.000000  -0.000000  -0.000000   0.000070   0.000000
              25         26         27         28         29         30
     1  C    0.000036  -0.000000   0.000000  -0.000000   0.000000   0.000000
     2  C    0.001381   0.000000  -0.000000   0.000000  -0.000000  -0.000000
     3  C   -0.024627   0.000000   0.000000  -0.000000   0.000000   0.000000
     4  C    0.393472  -0.000001  -0.000001   0.000000  -0.000000  -0.000000
     5  C   -0.025283   0.000010   0.000021  -0.000000   0.000000   0.000000
     6  C    0.001226   0.000000  -0.000000  -0.000000  -0.000000  -0.000011
     7  C   -0.000018  -0.000020   0.000005  -0.000002   0.000001   0.000056
     8  O   -0.001104  -0.000466  -0.000696   0.000001  -0.000004  -0.000001
     9  C    0.000034  -0.021585  -0.022059  -0.002064   0.001280  -0.000424
    10  C    0.000000   0.001337  -0.002236   0.000059   0.000010  -0.002698
    11  C   -0.000002   0.382016   0.381518  -0.025433  -0.021153   0.000043
    12  C    0.000000  -0.019848  -0.020868   0.377324   0.383481  -0.000359
    13  N    0.000000   0.000819  -0.000750  -0.020962  -0.021777  -0.000041
    14  C   -0.000000   0.000007   0.000104  -0.001336   0.001609  -0.021211
    15  C   -0.000000  -0.000000  -0.000000   0.000092  -0.000029   0.382906
    16  C   -0.000000   0.000001  -0.000000   0.000575  -0.000063  -0.022081
    17  C    0.000000  -0.000023   0.000004  -0.004013  -0.001833   0.001086
    18  O    0.000000   0.000000  -0.000000   0.000000  -0.000000   0.000004
    19  C    0.000000  -0.000000  -0.000000  -0.000000  -0.000000   0.000000
    20  H   -0.000000   0.000010   0.000195   0.000005  -0.000013   0.000009
    21  H    0.000001  -0.002825   0.001822   0.000316  -0.000001  -0.000425
    22  H   -0.000000   0.000003  -0.000020  -0.000056  -0.000033   0.001829
    23  H   -0.000032  -0.000000   0.000000  -0.000000   0.000000   0.000000
    24  H   -0.003713  -0.000000  -0.000000   0.000000  -0.000000  -0.000000
    25  H    0.589111  -0.000000  -0.000000  -0.000000  -0.000000   0.000000
    26  H   -0.000000   0.624583  -0.023347  -0.002574  -0.001755   0.000002
    27  H   -0.000000  -0.023347   0.618701   0.001928  -0.002996  -0.000002
    28  H   -0.000000  -0.002574   0.001928   0.662140  -0.026415  -0.000637
    29  H   -0.000000  -0.001755  -0.002996  -0.026415   0.625092   0.000008
    30  H    0.000000   0.000002  -0.000002  -0.000637   0.000008   0.643897
    31  H   -0.000000  -0.000000   0.000000  -0.000001   0.000001  -0.023584
    32  H   -0.000000  -0.000000  -0.000000  -0.000323   0.000021  -0.007175
    33  H   -0.000000  -0.000000   0.000000  -0.000010  -0.000001   0.001684
    34  H    0.000000  -0.000002   0.000000  -0.000250   0.000018  -0.000041
    35  H   -0.000000   0.000000  -0.000000  -0.000031   0.000060  -0.000029
    36  H   -0.000000   0.000000   0.000000   0.000000  -0.000000  -0.000000
    37  H    0.000000  -0.000000   0.000000  -0.000000   0.000000   0.000000
    38  H   -0.000000  -0.000000  -0.000000  -0.000000   0.000000  -0.000000
              31         32         33         34         35         36
     1  C   -0.000000   0.000000  -0.000000   0.000000   0.000000  -0.021146
     2  C    0.000000  -0.000000   0.000000  -0.000000   0.000000   0.000770
     3  C    0.000000  -0.000000  -0.000000  -0.000000   0.000000  -0.000023
     4  C    0.000000  -0.000000   0.000000  -0.000000  -0.000000   0.000002
     5  C   -0.000000   0.000000  -0.000000  -0.000000   0.000000   0.000002
     6  C    0.000003  -0.000000   0.000000  -0.000000  -0.000000  -0.001932
     7  C   -0.000164  -0.000000  -0.000000   0.000000  -0.000000  -0.000054
     8  O   -0.000000  -0.000000   0.000000  -0.000000  -0.000000  -0.000000
     9  C    0.000016   0.000002  -0.000000  -0.000000  -0.000001  -0.000000
    10  C    0.000218  -0.000020  -0.000009  -0.000022   0.000002  -0.000003
    11  C   -0.000002   0.000001   0.000000   0.000045  -0.000023  -0.000000
    12  C    0.000001  -0.000165  -0.000002  -0.004788   0.001844  -0.000000
    13  N    0.001078   0.000569   0.001005  -0.015553  -0.023671  -0.000000
    14  C   -0.018871   0.001373   0.000960   0.001828  -0.000405   0.000000
    15  C    0.384135  -0.021678  -0.020690   0.001281   0.000276  -0.000000
    16  C   -0.020370   0.384032   0.384625  -0.020506  -0.024840   0.000000
    17  C    0.001329  -0.021235  -0.020720   0.383034   0.382020   0.000000
    18  O    0.000056  -0.000000   0.000000   0.000000   0.000000  -0.000415
    19  C    0.000000  -0.000000   0.000000   0.000000  -0.000000   0.380808
    20  H   -0.000013   0.000001   0.000001  -0.000000   0.000001  -0.000000
    21  H    0.000016   0.000003  -0.000000   0.000000   0.000000   0.000000
    22  H   -0.004394  -0.000012   0.000071   0.000008   0.000276   0.000000
    23  H   -0.000000   0.000000  -0.000000   0.000000   0.000000   0.000070
    24  H   -0.000000  -0.000000   0.000000  -0.000000  -0.000000   0.000000
    25  H   -0.000000  -0.000000  -0.000000   0.000000  -0.000000  -0.000000
    26  H   -0.000000  -0.000000  -0.000000  -0.000002   0.000000   0.000000
    27  H    0.000000  -0.000000   0.000000   0.000000  -0.000000   0.000000
    28  H   -0.000001  -0.000323  -0.000010  -0.000250  -0.000031   0.000000
    29  H    0.000001   0.000021  -0.000001   0.000018   0.000060  -0.000000
    30  H   -0.023584  -0.007175   0.001684  -0.000041  -0.000029  -0.000000
    31  H    0.619401   0.001331  -0.006124  -0.000021   0.000001   0.000000
    32  H    0.001331   0.637694  -0.023403  -0.005159   0.001803  -0.000000
    33  H   -0.006124  -0.023403   0.630539   0.001115  -0.006047   0.000000
    34  H   -0.000021  -0.005159   0.001115   0.621522  -0.023901  -0.000000
    35  H    0.000001   0.001803  -0.006047  -0.023901   0.633509   0.000000
    36  H    0.000000  -0.000000   0.000000  -0.000000   0.000000   0.607066
    37  H   -0.000000   0.000000  -0.000000   0.000000   0.000000  -0.022093
    38  H    0.000000   0.000000   0.000000  -0.000000  -0.000000  -0.018386
              37         38
     1  C   -0.020517  -0.021116
     2  C   -0.005655   0.000669
     3  C    0.000061  -0.000024
     4  C   -0.000000   0.000003
     5  C   -0.000016  -0.000001
     6  C    0.001130  -0.001752
     7  C    0.000014  -0.000074
     8  O    0.000000  -0.000000
     9  C    0.000000  -0.000000
    10  C    0.000000  -0.000002
    11  C    0.000000   0.000000
    12  C   -0.000000   0.000000
    13  N    0.000000  -0.000000
    14  C   -0.000000  -0.000000
    15  C    0.000000   0.000000
    16  C   -0.000000  -0.000000
    17  C   -0.000000   0.000000
    18  O    0.000063  -0.000278
    19  C    0.382773   0.380532
    20  H   -0.000000   0.000000
    21  H   -0.000000  -0.000000
    22  H   -0.000000  -0.000000
    23  H    0.000167   0.000070
    24  H   -0.000003   0.000000
    25  H    0.000000  -0.000000
    26  H   -0.000000  -0.000000
    27  H    0.000000  -0.000000
    28  H   -0.000000  -0.000000
    29  H    0.000000   0.000000
    30  H    0.000000  -0.000000
    31  H   -0.000000   0.000000
    32  H    0.000000   0.000000
    33  H   -0.000000   0.000000
    34  H    0.000000  -0.000000
    35  H    0.000000  -0.000000
    36  H   -0.022093  -0.018386
    37  H    0.624846  -0.021880
    38  H   -0.021880   0.606458
 Mulliken charges:
               1
     1  C    0.034493
     2  C   -0.079983
     3  C   -0.047871
     4  C   -0.086558
     5  C    0.130429
     6  C   -0.067469
     7  C    0.182795
     8  O   -0.248138
     9  C    0.083505
    10  C   -0.073047
    11  C   -0.103689
    12  C   -0.019257
    13  N   -0.279348
    14  C    0.048798
    15  C   -0.115485
    16  C   -0.111864
    17  C   -0.023312
    18  O   -0.232379
    19  C   -0.177509
    20  H    0.077680
    21  H    0.053983
    22  H    0.066116
    23  H    0.057577
    24  H    0.067249
    25  H    0.069518
    26  H    0.063659
    27  H    0.068677
    28  H    0.041670
    29  H    0.064493
    30  H    0.047194
    31  H    0.065955
    32  H    0.052341
    33  H    0.057007
    34  H    0.061392
    35  H    0.059154
    36  H    0.075333
    37  H    0.061110
    38  H    0.075782
 Sum of Mulliken charges =  -0.00000
 Mulliken charges with hydrogens summed into heavy atoms:
               1
     1  C    0.034493
     2  C   -0.022407
     3  C    0.019378
     4  C   -0.017040
     5  C    0.130429
     6  C   -0.067469
     7  C    0.182795
     8  O   -0.248138
     9  C    0.137489
    10  C    0.004633
    11  C    0.028647
    12  C    0.086906
    13  N   -0.279348
    14  C    0.114914
    15  C   -0.002336
    16  C   -0.002516
    17  C    0.097234
    18  O   -0.232379
    19  C    0.034716
 Electronic spatial extent (au):  <R**2>=           5188.2586
 Charge=              0.0000 electrons
 Dipole moment (field-independent basis, Debye):
    X=              0.1465    Y=             -0.3370    Z=              1.4381  Tot=              1.4843
 Quadrupole moment (field-independent basis, Debye-Ang):
   XX=            -99.6895   YY=           -109.2581   ZZ=           -106.2011
   XY=             -0.3732   XZ=              3.1042   YZ=             -1.0179
 Traceless Quadrupole moment (field-independent basis, Debye-Ang):
   XX=              5.3600   YY=             -4.2085   ZZ=             -1.1515
   XY=             -0.3732   XZ=              3.1042   YZ=             -1.0179
 Octapole moment (field-independent basis, Debye-Ang**2):
  XXX=            -15.9270  YYY=             -6.2037  ZZZ=             -5.4652  XYY=              3.1404
  XXY=              3.4423  XXZ=             14.0465  XZZ=             -0.3521  YZZ=              2.1065
  YYZ=              2.4391  XYZ=             -3.1060
 Hexadecapole moment (field-independent basis, Debye-Ang**3):
 XXXX=          -4733.5087 YYYY=          -1455.8771 ZZZZ=           -271.4202 XXXY=             11.7520
 XXXZ=             11.5208 YYYX=              0.5563 YYYZ=             -1.1543 ZZZX=              9.5034
 ZZZY=             -8.0300 XXYY=          -1009.2167 XXZZ=           -903.7143 YYZZ=           -283.7345
 XXYZ=            -21.8588 YYXZ=             -8.2781 ZZXY=             -1.9022
 N-N= 1.489691610741D+03 E-N=-4.874499552141D+03  KE= 8.035546352538D+02
 ******************************Gaussian NBO Version 3.1******************************
             N A T U R A L   A T O M I C   O R B I T A L   A N D
          N A T U R A L   B O N D   O R B I T A L   A N A L Y S I S
 ******************************Gaussian NBO Version 3.1******************************
       /RESON  / : Allow strongly delocalized NBO set
       /NLMO   / : Form Natural Localized Molecular Orbitals
       /NMR /    : Analyze NMR Sheilding Tensor 

 Analyzing the SCF density

 Job title: Title Card Required                                             

 Storage needed:     43472 in NPA,     53775 in NBO,    102144 in NLMO ( 104850000 available)
 GSVD:  LWork=      -13908 too small for GESVD, short by       66690 words or       66690 for optimal perf.


 NATURAL POPULATIONS:  Natural atomic orbital occupancies 
                                                          
   NAO  Atom  No  lang   Type(AO)    Occupancy      Energy
 ----------------------------------------------------------
     1    C    1  S      Cor( 1S)     1.99991     -10.98453
     2    C    1  S      Val( 2S)     1.08185      -0.20121
     3    C    1  px     Val( 2p)     0.95932       0.15598
     4    C    1  py     Val( 2p)     0.94921       0.15228
     5    C    1  pz     Val( 2p)     0.93333       0.02365

     6    C    2  S      Cor( 1S)     1.99995     -10.94709
     7    C    2  S      Val( 2S)     1.08017      -0.18586
     8    C    2  px     Val( 2p)     0.97438       0.14958
     9    C    2  py     Val( 2p)     0.97064       0.15578
    10    C    2  pz     Val( 2p)     1.04908      -0.00275

    11    C    3  S      Cor( 1S)     1.99994     -10.96429
    12    C    3  S      Val( 2S)     1.08015      -0.18935
    13    C    3  px     Val( 2p)     0.98297       0.14071
    14    C    3  py     Val( 2p)     0.98357       0.14642
    15    C    3  pz     Val( 2p)     0.96035       0.01140

    16    C    4  S      Cor( 1S)     1.99994     -10.94871
    17    C    4  S      Val( 2S)     1.07702      -0.18579
    18    C    4  px     Val( 2p)     0.97451       0.14756
    19    C    4  py     Val( 2p)     0.98945       0.14429
    20    C    4  pz     Val( 2p)     1.05512      -0.00727

    21    C    5  S      Cor( 1S)     1.99978     -11.03339
    22    C    5  S      Val( 2S)     1.06196      -0.21694
    23    C    5  px     Val( 2p)     0.87118       0.13953
    24    C    5  py     Val( 2p)     0.92284       0.15873
    25    C    5  pz     Val( 2p)     0.95647      -0.00882

    26    C    6  S      Cor( 1S)     1.99991     -10.96211
    27    C    6  S      Val( 2S)     1.08862      -0.21003
    28    C    6  px     Val( 2p)     0.97739       0.13496
    29    C    6  py     Val( 2p)     0.96693       0.14295
    30    C    6  pz     Val( 2p)     1.09634      -0.01867

    31    C    7  S      Cor( 1S)     1.99996     -11.05617
    32    C    7  S      Val( 2S)     1.07923      -0.24632
    33    C    7  px     Val( 2p)     0.93794       0.10400
    34    C    7  py     Val( 2p)     0.84774       0.18038
    35    C    7  pz     Val( 2p)     0.89461      -0.00571

    36    O    8  S      Cor( 1S)     1.99999     -20.20912
    37    O    8  S      Val( 2S)     1.73427      -1.02169
    38    O    8  px     Val( 2p)     1.12314      -0.04578
    39    O    8  py     Val( 2p)     1.54755      -0.24493
    40    O    8  pz     Val( 2p)     1.84855      -0.36337

    41    C    9  S      Cor( 1S)     1.99988     -11.06074
    42    C    9  S      Val( 2S)     1.08202      -0.23904
    43    C    9  px     Val( 2p)     0.84740       0.08399
    44    C    9  py     Val( 2p)     0.93671       0.07068
    45    C    9  pz     Val( 2p)     0.98115       0.06713

    46    C   10  S      Cor( 1S)     1.99996     -11.00693
    47    C   10  S      Val( 2S)     1.10063      -0.23260
    48    C   10  px     Val( 2p)     0.98399       0.07071
    49    C   10  py     Val( 2p)     0.99386       0.06387
    50    C   10  pz     Val( 2p)     1.01374       0.06318

    51    C   11  S      Cor( 1S)     1.99996     -10.99166
    52    C   11  S      Val( 2S)     1.08633      -0.20733
    53    C   11  px     Val( 2p)     0.96890       0.08123
    54    C   11  py     Val( 2p)     0.99345       0.07842
    55    C   11  pz     Val( 2p)     1.03605       0.06827

    56    C   12  S      Cor( 1S)     1.99993     -11.01778
    57    C   12  S      Val( 2S)     1.07421      -0.20517
    58    C   12  px     Val( 2p)     0.99553       0.06778
    59    C   12  py     Val( 2p)     0.92950       0.08627
    60    C   12  pz     Val( 2p)     0.96454       0.09193

    61    N   13  S      Cor( 1S)     1.99999     -15.25087
    62    N   13  S      Val( 2S)     1.46709      -0.60863
    63    N   13  px     Val( 2p)     1.04645       0.03324
    64    N   13  py     Val( 2p)     1.08784       0.02824
    65    N   13  pz     Val( 2p)     1.66436      -0.20427

    66    C   14  S      Cor( 1S)     1.99994     -11.02568
    67    C   14  S      Val( 2S)     1.08509      -0.21744
    68    C   14  px     Val( 2p)     0.89721       0.10822
    69    C   14  py     Val( 2p)     0.93499       0.09080
    70    C   14  pz     Val( 2p)     0.98739       0.08096

    71    C   15  S      Cor( 1S)     1.99997     -10.97731
    72    C   15  S      Val( 2S)     1.08734      -0.19740
    73    C   15  px     Val( 2p)     0.98184       0.08552
    74    C   15  py     Val( 2p)     1.02351       0.08070
    75    C   15  pz     Val( 2p)     0.99345       0.08862

    76    C   16  S      Cor( 1S)     1.99998     -10.97742
    77    C   16  S      Val( 2S)     1.08415      -0.19407
    78    C   16  px     Val( 2p)     0.97686       0.08809
    79    C   16  py     Val( 2p)     1.01289       0.08517
    80    C   16  pz     Val( 2p)     1.00528       0.08796

    81    C   17  S      Cor( 1S)     1.99994     -11.00730
    82    C   17  S      Val( 2S)     1.07930      -0.20057
    83    C   17  px     Val( 2p)     0.93203       0.10194
    84    C   17  py     Val( 2p)     0.97122       0.08149
    85    C   17  pz     Val( 2p)     0.98762       0.08284

    86    O   18  S      Cor( 1S)     1.99999     -20.11301
    87    O   18  S      Val( 2S)     1.80517      -1.06177
    88    O   18  px     Val( 2p)     1.87371      -0.33817
    89    O   18  py     Val( 2p)     1.36308      -0.11846
    90    O   18  pz     Val( 2p)     1.20136      -0.12061

    91    C   19  S      Cor( 1S)     1.99997     -10.97637
    92    C   19  S      Val( 2S)     1.07801      -0.18672
    93    C   19  px     Val( 2p)     1.04188       0.07201
    94    C   19  py     Val( 2p)     0.98309       0.08454
    95    C   19  pz     Val( 2p)     1.04338       0.07205

    96    H   20  S      Val( 1S)     0.94343       0.05689

    97    H   21  S      Val( 1S)     0.98195       0.03068

    98    H   22  S      Val( 1S)     0.96537       0.06234

    99    H   23  S      Val( 1S)     0.96775       0.06698

   100    H   24  S      Val( 1S)     0.96095       0.06123

   101    H   25  S      Val( 1S)     0.95534       0.07346

   102    H   26  S      Val( 1S)     0.95727       0.06473

   103    H   27  S      Val( 1S)     0.95287       0.07136

   104    H   28  S      Val( 1S)     0.98637       0.04738

   105    H   29  S      Val( 1S)     0.96288       0.06163

   106    H   30  S      Val( 1S)     0.97239       0.05997

   107    H   31  S      Val( 1S)     0.95497       0.07667

   108    H   32  S      Val( 1S)     0.96733       0.06514

   109    H   33  S      Val( 1S)     0.96290       0.06914

   110    H   34  S      Val( 1S)     0.96448       0.05907

   111    H   35  S      Val( 1S)     0.96833       0.06727

   112    H   36  S      Val( 1S)     0.94106       0.08182

   113    H   37  S      Val( 1S)     0.95552       0.07356

   114    H   38  S      Val( 1S)     0.94049       0.08174


 Summary of Natural Population Analysis:                  
                                                          
                                       Natural Population 
                Natural  -----------------------------------------------
    Atom  No    Charge         Core      Valence    Rydberg      Total
 -----------------------------------------------------------------------
      C    1    0.07638      1.99991     3.92371    0.00000     5.92362
      C    2   -0.07422      1.99995     4.07428    0.00000     6.07422
      C    3   -0.00698      1.99994     4.00704    0.00000     6.00698
      C    4   -0.09604      1.99994     4.09610    0.00000     6.09604
      C    5    0.18777      1.99978     3.81245    0.00000     5.81223
      C    6   -0.12919      1.99991     4.12928    0.00000     6.12919
      C    7    0.24053      1.99996     3.75951    0.00000     5.75947
      O    8   -0.25350      1.99999     6.25351    0.00000     8.25350
      C    9    0.15284      1.99988     3.84728    0.00000     5.84716
      C   10   -0.09219      1.99996     4.09223    0.00000     6.09219
      C   11   -0.08470      1.99996     4.08473    0.00000     6.08470
      C   12    0.03629      1.99993     3.96379    0.00000     5.96371
      N   13   -0.26572      1.99999     5.26573    0.00000     7.26572
      C   14    0.09539      1.99994     3.90467    0.00000     5.90461
      C   15   -0.08611      1.99997     4.08614    0.00000     6.08611
      C   16   -0.07916      1.99998     4.07919    0.00000     6.07916
      C   17    0.02990      1.99994     3.97016    0.00000     5.97010
      O   18   -0.24331      1.99999     6.24332    0.00000     8.24331
      C   19   -0.14634      1.99997     4.14637    0.00000     6.14634
      H   20    0.05657      0.00000     0.94343    0.00000     0.94343
      H   21    0.01805      0.00000     0.98195    0.00000     0.98195
      H   22    0.03463      0.00000     0.96537    0.00000     0.96537
      H   23    0.03225      0.00000     0.96775    0.00000     0.96775
      H   24    0.03905      0.00000     0.96095    0.00000     0.96095
      H   25    0.04466      0.00000     0.95534    0.00000     0.95534
      H   26    0.04273      0.00000     0.95727    0.00000     0.95727
      H   27    0.04713      0.00000     0.95287    0.00000     0.95287
      H   28    0.01363      0.00000     0.98637    0.00000     0.98637
      H   29    0.03712      0.00000     0.96288    0.00000     0.96288
      H   30    0.02761      0.00000     0.97239    0.00000     0.97239
      H   31    0.04503      0.00000     0.95497    0.00000     0.95497
      H   32    0.03267      0.00000     0.96733    0.00000     0.96733
      H   33    0.03710      0.00000     0.96290    0.00000     0.96290
      H   34    0.03552      0.00000     0.96448    0.00000     0.96448
      H   35    0.03167      0.00000     0.96833    0.00000     0.96833
      H   36    0.05894      0.00000     0.94106    0.00000     0.94106
      H   37    0.04448      0.00000     0.95552    0.00000     0.95552
      H   38    0.05951      0.00000     0.94049    0.00000     0.94049
 =======================================================================
   * Total *   -0.00000     37.99889   100.00111    0.00000   138.00000

                                 Natural Population      
 --------------------------------------------------------
   Core                      37.99889 ( 99.9971% of  38)
   Valence                  100.00111 (100.0011% of 100)
   Natural Minimal Basis    138.00000 (100.0000% of 138)
   Natural Rydberg Basis      0.00000 (  0.0000% of 138)
 --------------------------------------------------------

    Atom  No          Natural Electron Configuration
 ----------------------------------------------------------------------------
      C    1      [core]2S( 1.08)2p( 2.84)
      C    2      [core]2S( 1.08)2p( 2.99)
      C    3      [core]2S( 1.08)2p( 2.93)
      C    4      [core]2S( 1.08)2p( 3.02)
      C    5      [core]2S( 1.06)2p( 2.75)
      C    6      [core]2S( 1.09)2p( 3.04)
      C    7      [core]2S( 1.08)2p( 2.68)
      O    8      [core]2S( 1.73)2p( 4.52)
      C    9      [core]2S( 1.08)2p( 2.77)
      C   10      [core]2S( 1.10)2p( 2.99)
      C   11      [core]2S( 1.09)2p( 3.00)
      C   12      [core]2S( 1.07)2p( 2.89)
      N   13      [core]2S( 1.47)2p( 3.80)
      C   14      [core]2S( 1.09)2p( 2.82)
      C   15      [core]2S( 1.09)2p( 3.00)
      C   16      [core]2S( 1.08)2p( 3.00)
      C   17      [core]2S( 1.08)2p( 2.89)
      O   18      [core]2S( 1.81)2p( 4.44)
      C   19      [core]2S( 1.08)2p( 3.07)
      H   20            1S( 0.94)
      H   21            1S( 0.98)
      H   22            1S( 0.97)
      H   23            1S( 0.97)
      H   24            1S( 0.96)
      H   25            1S( 0.96)
      H   26            1S( 0.96)
      H   27            1S( 0.95)
      H   28            1S( 0.99)
      H   29            1S( 0.96)
      H   30            1S( 0.97)
      H   31            1S( 0.95)
      H   32            1S( 0.97)
      H   33            1S( 0.96)
      H   34            1S( 0.96)
      H   35            1S( 0.97)
      H   36            1S( 0.94)
      H   37            1S( 0.96)
      H   38            1S( 0.94)


 NATURAL BOND ORBITAL ANALYSIS:

                       Occupancies       Lewis Structure    Low   High
           Occ.    -------------------  -----------------   occ   occ
  Cycle   Thresh.   Lewis   Non-Lewis     CR  BD  3C  LP    (L)   (NL)   Dev
 =============================================================================
   1(1)    1.90   134.43353   3.56647     19  43   0   7     3      3    0.45
   2(2)    1.90   134.43353   3.56647     19  43   0   7     3      3    0.45
   3(1)    1.80   134.35527   3.64473     19  42   0   8     3      3    0.45
   4(2)    1.80   134.35527   3.64473     19  42   0   8     3      3    0.45
   5(1)    1.70   134.35527   3.64473     19  42   0   8     3      3    0.45
   6(2)    1.70   134.35527   3.64473     19  42   0   8     3      3    0.45
   7(1)    1.60   135.52695   2.47305     19  44   0   6     1      3    0.43
   8(2)    1.60   136.10378   1.89622     19  45   0   5     0      3    0.45
   9(3)    1.60   136.13191   1.86809     19  45   0   5     0      3    0.43
  10(4)    1.60   136.10378   1.89622     19  45   0   5     0      3    0.45
  11(5)    1.60   136.13191   1.86809     19  45   0   5     0      3    0.43
  12(1)    1.50   136.13191   1.86809     19  45   0   5     0      3    0.43
  13(2)    1.50   136.10378   1.89622     19  45   0   5     0      3    0.45
  14(3)    1.50   136.13191   1.86809     19  45   0   5     0      3    0.43
  15(1)    1.60   136.13191   1.86809     19  45   0   5     0      3    0.43
 -----------------------------------------------------------------------------

 Structure accepted: RESONANCE keyword permits strongly delocalized structure

 --------------------------------------------------------
   Core                     37.99888 ( 99.997% of  38)
   Valence Lewis            98.13303 ( 98.133% of 100)
  ==================       ============================
   Total Lewis             136.13191 ( 98.646% of 138)
  -----------------------------------------------------
   Valence non-Lewis         1.86809 (  1.354% of 138)
   Rydberg non-Lewis         0.00000 (  0.000% of 138)
  ==================       ============================
   Total non-Lewis           1.86809 (  1.354% of 138)
 --------------------------------------------------------


       (Occupancy)   Bond orbital/ Coefficients/ Hybrids
 ---------------------------------------------------------------------------------
     1. (1.98527) BD ( 1) C   1 - C   2  
                ( 50.02%)   0.7072* C   1 s( 33.71%)p 1.97( 66.29%)
                                            0.0000  0.5806 -0.6946 -0.4002  0.1420
                ( 49.98%)   0.7070* C   2 s( 34.47%)p 1.90( 65.53%)
                                            0.0001  0.5871  0.6879  0.4067 -0.1292
     2. (1.65707) BD ( 2) C   1 - C   2  
                ( 45.54%)   0.6748* C   1 s(  0.00%)p 1.00(100.00%)
                                           -0.0000 -0.0008  0.1674  0.0573  0.9842
                ( 54.46%)   0.7380* C   2 s(  0.00%)p 1.00(100.00%)
                                           -0.0000 -0.0011  0.1583  0.0471  0.9863
     3. (1.98114) BD ( 1) C   1 - C   6  
                ( 49.47%)   0.7034* C   1 s( 34.62%)p 1.89( 65.38%)
                                            0.0001  0.5884  0.6995 -0.3943 -0.0955
                ( 50.53%)   0.7108* C   6 s( 35.66%)p 1.80( 64.34%)
                                            0.0000  0.5972 -0.6677  0.4354  0.0898
     4. (1.98734) BD ( 1) C   1 - C  19  
                ( 50.16%)   0.7082* C   1 s( 31.67%)p 2.16( 68.33%)
                                           -0.0000  0.5627 -0.0143  0.8253 -0.0452
                ( 49.84%)   0.7060* C  19 s( 25.58%)p 2.91( 74.42%)
                                            0.0001  0.5058  0.0376 -0.8606  0.0455
     5. (1.98978) BD ( 1) C   2 - C   3  
                ( 49.56%)   0.7040* C   2 s( 34.19%)p 1.92( 65.81%)
                                            0.0001  0.5848 -0.0125 -0.8101  0.0414
                ( 50.44%)   0.7102* C   3 s( 34.33%)p 1.91( 65.67%)
                                            0.0000  0.5859 -0.0005  0.8096 -0.0355
     6. (1.98876) BD ( 1) C   2 - H  23  
                ( 51.64%)   0.7186* C   2 s( 31.33%)p 2.19( 68.67%)
[...]
 NLMO      Total    Paramagnetic  Diamagnetic   Paramagnetic  Diamagnetic
    3      -0.4782       -0.5782       0.1001        -1.1394       0.6613
    4       0.1450       -1.0917       1.2367        -0.8346       0.9796
    8       0.3849       -0.2200       0.6049        -0.6526       1.0375
   13       0.9929       -0.1151       1.1079        -0.4659       1.4588
   15     -10.6666      -10.8096       0.1429       -11.3929       0.7263
   16     -10.1277      -10.5511       0.4234       -10.8348       0.7072
   17    -117.4607     -127.3534       9.8926      -126.8697       9.4089
   18     -24.9066      -50.0881      25.1815       -50.0037      25.0971
   20      -1.0179       -1.1943       0.1765        -1.1822       0.1643
   23      -0.2946       -0.4569       0.1622        -1.2670       0.9724
   37      -0.2638       -1.0558       0.7920        -0.9419       0.6782
   43      -0.3752       -1.7045       1.3293        -1.3400       0.9649
   45      -0.4030       -1.8756       1.4726        -1.3686       0.9656
   63     271.9296       -0.0055     271.9351        -0.0054     271.9350
   68     -34.2476      -69.3716      35.1240       -69.2757      35.0281
   69    -413.8944     -451.0351      37.1407      -453.5291      39.6347
 Sum     -340.6840     -727.5064     386.8225      -731.1037     390.4197

 Contributions to Isotropic shielding for atom   19 (   218.0725 ppm):
                         Standard Origin              Atomic Origin
 NLMO      Total    Paramagnetic  Diamagnetic   Paramagnetic  Diamagnetic
    1      -1.9419       -1.3432      -0.5987        -2.4302       0.4883
    2      -0.9232       -0.7650      -0.1582        -2.5763       1.6531
    3      -1.0128       -1.4940       0.4812        -1.3120       0.2992
    4       3.7481      -10.8622      14.6103        -3.2017       6.9498
    6      -0.6707       -1.6217       0.9510        -1.7076       1.0369
    8       0.8451       -0.3290       1.1741        -0.3393       1.1844
   15      -0.3737        0.0706      -0.4443        -1.2436       0.8699
   17      -0.4603       -0.2732      -0.1870        -1.1950       0.7348
   18       0.2507        0.2959      -0.0452        -1.2350       1.4857
   43       6.9614       -6.4682      13.4296        -4.4984      11.4598
   44       3.9507        5.3220      -1.3712        -7.2328      11.1836
   45       7.2548       -3.8171      11.0719        -4.1632      11.4180
   64     200.0787       -0.0033     200.0820         0.0032     200.0755
 Sum      217.7069      -21.2885     238.9954       -31.1319     248.8388

 Contributions to Isotropic shielding for atom   20 (    30.8923 ppm):
                         Standard Origin              Atomic Origin
 NLMO      Total    Paramagnetic  Diamagnetic   Paramagnetic  Diamagnetic
   13       0.1132       -0.5580       0.6712        -1.1958       1.3090
   16       2.0097        1.6199       0.3897         1.1943       0.8154
   19       0.0227       -0.3789       0.4017        -1.1394       1.1621
   20       1.3376        0.8951       0.4425         0.6784       0.6592
   23       1.1408        1.3496      -0.2088         0.1382       1.0027
   24      25.5829        0.0357      25.5472         0.3309      25.2520
   27      -0.0661       -1.0422       0.9761        -0.9086       0.8425
   34       0.0411       -0.7596       0.8007        -0.9894       1.0305
 Sum       30.1820        1.1616      29.0204        -1.8914      32.0733

 Contributions to Isotropic shielding for atom   21 (    31.5981 ppm):
                         Standard Origin              Atomic Origin
 NLMO      Total    Paramagnetic  Diamagnetic   Paramagnetic  Diamagnetic
   13       0.1358       -0.6450       0.7808        -1.1802       1.3159
   19       0.8620        0.2944       0.5676        -0.5048       1.3668
   20       1.0697       -0.3204       1.3900         0.3668       0.7028
   21       0.5845        0.7407      -0.1562        -0.4477       1.0322
   22      26.3158        0.4848      25.8311         0.7140      25.6019
   29      -0.0557       -1.0089       0.9532        -0.8087       0.7530
 Sum       28.9121       -0.4545      29.3665        -1.8606      30.7727

 Contributions to Isotropic shielding for atom   22 (    30.4940 ppm):
                         Standard Origin              Atomic Origin
 NLMO      Total    Paramagnetic  Diamagnetic   Paramagnetic  Diamagnetic
   17      -0.4061       -0.5576       0.1515        -1.2672       0.8611
   18       0.2045       -0.2693       0.4738        -1.3017       1.5062
   23       1.1125       -0.1697       1.2823         0.0067       1.1058
   24       0.1271        0.2007      -0.0736        -0.9451       1.0722
   31       0.4901        1.5735      -1.0834        -0.7158       1.2059
   33       0.5912        1.0981      -0.5070        -0.2304       0.8216
   34      26.1225        0.1279      25.9946         0.6631      25.4595
   37       0.0673       -0.5683       0.6356        -0.9401       1.0074
   38       0.3709       -1.1438       1.5147        -0.5035       0.8744
   42      -0.0164       -1.4254       1.4090        -0.8420       0.8256
 Sum       28.6637       -1.1339      29.7976        -6.0761      34.7397

 Contributions to Isotropic shielding for atom   23 (    25.8901 ppm):
                         Standard Origin              Atomic Origin
 NLMO      Total    Paramagnetic  Diamagnetic   Paramagnetic  Diamagnetic
    1      -1.4063       -2.7703       1.3639        -1.9853       0.5790
    2       0.8126        1.5960      -0.7834        -2.5474       3.3601
    4      -0.7036        0.8008      -1.5044        -1.7818       1.0782
    5      -2.0451       -1.2093      -0.8358        -2.7518       0.7066
    6      27.0297        0.9448      26.0848         1.5527      25.4770
    9      -0.0793       -0.1646       0.0853        -1.1843       1.1050
   13       0.5460        0.8924      -0.3464        -0.7070       1.2530
   44      -0.1255       -1.2877       1.1622        -0.9050       0.7795
 Sum       24.0284       -1.1977      25.2261       -10.3100      34.3384

 Contributions to Isotropic shielding for atom   24 (    25.2871 ppm):
                         Standard Origin              Atomic Origin
 NLMO      Total    Paramagnetic  Diamagnetic   Paramagnetic  Diamagnetic
    2       1.2670        0.8428       0.4242         0.2026       1.0645
    5      -2.0800       -1.9399      -0.1401        -2.8211       0.7411
    6      -0.1064        0.1009      -0.2072        -1.2365       1.1301
    7      -1.8878       -2.6519       0.7641        -2.6097       0.7219
    8       0.4729        1.3916      -0.9187        -2.3489       2.8217
    9      26.8981        1.1001      25.7980         1.6083      25.2898
   11      -0.1141        0.6634      -0.7775        -1.2223       1.1082
   13       0.4694        0.7876      -0.3182        -0.9057       1.3751
 Sum       24.9191        0.2946      24.6245        -9.3333      34.2524

 Contributions to Isotropic shielding for atom   25 (    25.6861 ppm):
                         Standard Origin              Atomic Origin
 NLMO      Total    Paramagnetic  Diamagnetic   Paramagnetic  Diamagnetic
    2       1.2588       -0.4376       1.6964         0.0302       1.2286
    7      -1.8197       -0.9359      -0.8839        -2.5013       0.6815
    8       0.1808        0.0774       0.1033        -3.2207       3.4014
    9      -0.0505       -0.9923       0.9418        -1.1475       1.0969
   10      -0.9100       -2.5805       1.6705        -1.4658       0.5558
   11      26.5217        1.0747      25.4470         1.3161      25.2056
   14      -0.5096        0.4891      -0.9986        -2.1281       1.6186
   65      -0.1949       -0.4638       0.2689         0.8088      -1.0037
 Sum       24.4766       -3.7688      28.2454        -8.3082      32.7848

 Contributions to Isotropic shielding for atom   26 (    31.5980 ppm):
                         Standard Origin              Atomic Origin
 NLMO      Total    Paramagnetic  Diamagnetic   Paramagnetic  Diamagnetic
   19      -0.0105        0.5021      -0.5126        -1.5373       1.5268
   21       1.3931        0.0767       1.3164         0.5645       0.8286
   25       1.0024        1.7773      -0.7749         0.0688       0.9336
   26      26.1126        0.0637      26.0489         0.4548      25.6578
   27       1.9926        1.8027       0.1898         0.1069       1.8857
   29       0.2149       -0.4301       0.6450        -0.7893       1.0042
 Sum       30.7052        3.7925      26.9127        -1.1315      31.8368

 Contributions to Isotropic shielding for atom   27 (    31.3538 ppm):
                         Standard Origin              Atomic Origin
 NLMO      Total    Paramagnetic  Diamagnetic   Paramagnetic  Diamagnetic
   19       0.0470        0.3750      -0.3280        -1.4826       1.5295
   21       1.5551       -0.3522       1.9073         0.8269       0.7282
   25       1.0509        1.3533      -0.3024         0.1525       0.8985
   26       1.9894        1.9562       0.0332         0.1364       1.8530
   27      25.9272        0.1491      25.7781         0.4448      25.4824
   28       0.1655       -0.7334       0.8989        -0.9169       1.0824
 Sum       30.7351        2.7480      27.9871        -0.8389      31.5740

 Contributions to Isotropic shielding for atom   28 (    32.5197 ppm):
                         Standard Origin              Atomic Origin
 NLMO      Total    Paramagnetic  Diamagnetic   Paramagnetic  Diamagnetic
   25       1.1766       -0.4540       1.6306         0.1815       0.9950
   28       1.0419       -0.0561       1.0981         0.3024       0.7395
   29      26.6832        0.3909      26.2922         0.6568      26.0264
   30       1.6205        2.2110      -0.5905        -0.2022       1.8227
   39      -0.1202       -1.0620       0.9418        -0.8575       0.7373
   41       0.0597       -0.9619       1.0215        -0.7431       0.8027
 Sum       30.4617        0.0680      30.3937        -0.6621      31.1237

 Contributions to Isotropic shielding for atom   29 (    31.4890 ppm):
                         Standard Origin              Atomic Origin
 NLMO      Total    Paramagnetic  Diamagnetic   Paramagnetic  Diamagnetic
   25       0.7848        1.1008      -0.3160        -0.3080       1.0928
   27       0.1792        0.5052      -0.3259        -0.8428       1.0220
   28       0.6535        1.5096      -0.8560        -0.7177       1.3712
   29       1.6341        1.5677       0.0664        -0.0733       1.7073
   30      26.3043        0.0587      26.2456         0.7506      25.5537
   32      -0.2658        0.5506      -0.8164        -1.0835       0.8177
   41      -0.0510       -1.4779       1.4269        -0.8944       0.8433
 Sum       29.2391        3.8146      25.4245        -3.1690      32.4081

 Contributions to Isotropic shielding for atom   30 (    32.8689 ppm):
                         Standard Origin              Atomic Origin
 NLMO      Total    Paramagnetic  Diamagnetic   Paramagnetic  Diamagnetic
   18      -0.0740       -0.2284       0.1545        -1.0543       0.9803
   33       1.7013       -0.7606       2.4619         1.0404       0.6609
   35       0.6661        1.5481      -0.8820        -0.1879       0.8540
   36      26.3262        0.2561      26.0701         0.3047      26.0214
   37       2.1376        0.4749       1.6627         0.3075       1.8302
   38       0.5052       -0.6026       1.1079         0.2067       0.2985
   39       0.0201       -2.0036       2.0236        -1.1508       1.1709
 Sum       31.2825       -1.3162      32.5987        -0.5337      31.8162

 Contributions to Isotropic shielding for atom   31 (    32.1584 ppm):
                         Standard Origin              Atomic Origin
 NLMO      Total    Paramagnetic  Diamagnetic   Paramagnetic  Diamagnetic
   18      -0.0929       -0.3681       0.2752        -1.2194       1.1265
   33       1.6107       -0.1225       1.7333         0.8556       0.7551
   34       0.0539       -0.0477       0.1017        -0.9844       1.0383
   35       0.4406        2.2104      -1.7698        -0.4363       0.8769
   36       2.2282        0.3073       1.9209         0.4450       1.7833
   37      25.9545        0.1019      25.8526         0.3918      25.5627
   40       0.0478       -1.6340       1.6818        -1.0922       1.1400
 Sum       30.2429        0.4472      29.7957        -2.0399      32.2828

 Contributions to Isotropic shielding for atom   32 (    32.1687 ppm):
                         Standard Origin              Atomic Origin
 NLMO      Total    Paramagnetic  Diamagnetic   Paramagnetic  Diamagnetic
   32       0.3579       -0.8754       1.2333         0.1488       0.2092
   35       1.5367       -1.0934       2.6301         0.6443       0.8924
   36      -0.2106        0.8754      -1.0860        -1.3875       1.1769
   38       0.7804        1.1195      -0.3391        -0.0315       0.8120
   39      26.3800       -0.0073      26.3872         0.4847      25.8952
   40       1.9112        2.7300      -0.8188         0.1121       1.7991
   41       0.0024       -0.4578       0.4602        -1.0759       1.0784
 Sum       30.7580        2.2910      28.4671        -1.1051      31.8631

 Contributions to Isotropic shielding for atom   33 (    32.0578 ppm):
                         Standard Origin              Atomic Origin
 NLMO      Total    Paramagnetic  Diamagnetic   Paramagnetic  Diamagnetic
   31      -0.2431        0.3483      -0.5914        -1.1170       0.8739
   32       0.3340       -0.8858       1.2198         0.2298       0.1042
   35       1.4891       -0.5044       1.9935         0.6321       0.8571
   37      -0.1036        0.9769      -1.0804        -1.2308       1.1272
   38       0.5771        1.5729      -0.9959        -0.2306       0.8076
   39       1.9725        2.5291      -0.5566         0.1893       1.7832
   40      26.2950       -0.1573      26.4524         0.5252      25.7698
   42      -0.0246       -0.3667       0.3421        -1.1794       1.1548
 Sum       30.2964        3.5128      26.7836        -2.1814      32.4778

 Contributions to Isotropic shielding for atom   34 (    31.7210 ppm):
                         Standard Origin              Atomic Origin
 NLMO      Total    Paramagnetic  Diamagnetic   Paramagnetic  Diamagnetic
   28      -0.4558        1.2099      -1.6657        -1.6547       1.1989
   32       1.1751       -0.4913       1.6664         0.2604       0.9147
   33      -0.1528        0.2952      -0.4480        -1.0493       0.8965
   39      -0.0055        0.1960      -0.2015        -1.1075       1.1020
   41      26.4123        0.1279      26.2844         0.8535      25.5588
   42       1.5550        2.6437      -1.0886        -0.2885       1.8435
   67       1.1372       -0.1952       1.3324         1.2495      -0.1123
 Sum       29.6655        3.7862      25.8794        -1.7366      31.4021

 Contributions to Isotropic shielding for atom   35 (    31.3668 ppm):
                         Standard Origin              Atomic Origin
 NLMO      Total    Paramagnetic  Diamagnetic   Paramagnetic  Diamagnetic
   32       1.5005       -0.6793       2.1798         0.1889       1.3116
   33      -0.2375        0.4677      -0.7052        -1.0899       0.8524
   40      -0.0398       -0.0901       0.0503        -1.1755       1.1357
   41       1.3176        2.6852      -1.3676        -0.6267       1.9443
   42      26.3786        0.1934      26.1852         0.7326      25.6460
 Sum       28.9194        2.5769      26.3425        -1.9706      30.8900

 Contributions to Isotropic shielding for atom   36 (    30.9117 ppm):
                         Standard Origin              Atomic Origin
 NLMO      Total    Paramagnetic  Diamagnetic   Paramagnetic  Diamagnetic
    2      -0.7728       -0.5784      -0.1943        -1.6695       0.8967
    4       1.8780       -0.9080       2.7861         1.0060       0.8720
    8       0.5541       -0.2486       0.8027        -0.5335       1.0876
   15      -0.2939        0.1579      -0.4518        -1.2096       0.9157
   18       0.1502        0.1626      -0.0125        -1.2016       1.3518
   43      25.7021        0.2841      25.4180         0.3435      25.3586
   44       1.8029        2.2985      -0.4955        -0.0831       1.8861
   45       2.2096        0.3146       1.8950         0.3846       1.8251
 Sum       31.2303        1.4826      29.7477        -2.9633      34.1936

 Contributions to Isotropic shielding for atom   37 (    30.9846 ppm):
                         Standard Origin              Atomic Origin
 NLMO      Total    Paramagnetic  Diamagnetic   Paramagnetic  Diamagnetic
    1      -0.9948        0.1967      -1.1915        -1.9070       0.9121
    2      -0.7365        0.0551      -0.7916        -2.3457       1.6091
    4       1.0103        0.9275       0.0828         0.2520       0.7583
    6      -0.0058       -1.4809       1.4752        -0.9416       0.9358
   18       0.0694        0.1297      -0.0603        -0.9425       1.0119
   43       2.0610        1.9818       0.0792         0.0753       1.9857
   44      26.2658       -0.1533      26.4191         0.5271      25.7387
   45       2.1068        2.4376      -0.3308         0.1393       1.9675
 Sum       29.7762        4.0941      25.6821        -5.1430      34.9192

 Contributions to Isotropic shielding for atom   38 (    31.0261 ppm):
                         Standard Origin              Atomic Origin
 NLMO      Total    Paramagnetic  Diamagnetic   Paramagnetic  Diamagnetic
    2      -0.8528       -0.4643      -0.3885        -1.7719       0.9191
    4       1.8297       -0.4690       2.2988         0.9592       0.8706
    8       0.5892       -0.1871       0.7764        -0.4967       1.0859
   15      -0.3009        0.1855      -0.4864        -1.2195       0.9186
   18       0.0747        0.3097      -0.2350        -1.2202       1.2948
   43       2.2393        0.2040       2.0353         0.4370       1.8022
   44       1.7774        2.6371      -0.8597        -0.0964       1.8738
   45      25.7026        0.2224      25.4802         0.3465      25.3561
 Sum       31.0592        2.4383      28.6209        -3.0620      34.1212
 
 1\1\GINC-GNOSIE-MM\SP\RHF\STO-3G\C16H19N1O2\MBENIDD\18-May-2026\0\\# n
 mr=giao hf/sto-3g pop=nbo\\Title Card Required\\0,1\C,0,0.,0.,0.\C,0,1
 .4075,0.,0.\C,0,2.1282,1.1937,0.\C,0,1.4536,2.4092,0.012\C,0,0.0592,2.
 4323,0.0323\C,0,-0.6769,1.2368,0.0057\C,0,-2.1564,1.3485,-0.0547\O,0,-
 0.4994,3.6853,0.0545\C,0,-1.8221,3.6892,0.602\C,0,-2.7188,2.7467,-0.17
 86\C,0,-2.3661,5.1114,0.5062\C,0,-3.7992,5.1715,1.0194\N,0,-4.6828,4.2
 467,0.2906\C,0,-4.1823,2.8504,0.2608\C,0,-4.5439,2.303,1.6436\C,0,-5.8
 216,3.0468,2.0227\C,0,-5.9862,4.1365,0.9681\O,0,-2.878,0.3553,-0.0625\
 C,0,-0.7076,-1.3277,-0.0211\H,0,-2.66,2.9952,-1.2491\H,0,-1.7529,3.405
 7,1.662\H,0,-4.7844,2.3024,-0.4793\H,0,1.9561,-0.9407,-0.0092\H,0,3.21
 52,1.1739,-0.009\H,0,2.013,3.3413,0.0144\H,0,-1.7296,5.7923,1.0843\H,0
 ,-2.3153,5.4667,-0.5317\H,0,-3.7961,4.9697,2.0983\H,0,-4.1731,6.1945,0
 .8911\H,0,-3.7649,2.503,2.3872\H,0,-4.715,1.2219,1.6267\H,0,-5.7223,3.
 4763,3.0257\H,0,-6.6864,2.375,2.0276\H,0,-6.3379,5.0829,1.3938\H,0,-6.
 7374,3.8235,0.2324\H,0,-1.3496,-1.4351,0.8587\H,0,0.0034,-2.1612,0.001
 5\H,0,-1.2966,-1.4344,-0.9374\\Version=EM64L-G16RevB.01\State=1-A\HF=-
 811.0589257\RMSD=7.643e-09\Dipole=0.1110973,0.1182216,0.5609826\Quadru
 pole=1.3193388,-1.2763806,-0.0429582,-2.7996887,-2.1036748,2.2866191\P
 G=C01 [X(C16H19N1O2)]\\@


 LIVE PURE, SPEAK TRUE, RIGHT WRONG, FOLLOW THE KING...
 ELSE, WHEREFORE BORN......
           IDYLLS OF THE KING, TENNYSON
 Job cpu time:       0 days  0 hours  3 minutes 46.5 seconds.
 Elapsed time:       0 days  0 hours  2 minutes  3.4 seconds.
 File lengths (MBytes):  RWF=     14 Int=      0 D2E=      0 Chk=      2 Scr=      1
 Normal termination of Gaussian 16 at Mon May 18 11:36:40 2026.
