 Entering Gaussian System, Link 0=g16
 Input=4_isoelaeocarpine_c2.gjf
 Output=4_isoelaeocarpine_c2.log
 Initial command:
 /opt/gaussian/g16/l1.exe "/home/mbenidd/Bureau/Elaeocarpines/HF_NMR/4/4_isoelaeocarpine_c2/Gau-13827.inp" -scrdir="/home/mbenidd/Bureau/Elaeocarpines/HF_NMR/4/4_isoelaeocarpine_c2/"
 Entering Link 1 = /opt/gaussian/g16/l1.exe PID=     13829.
  
 Copyright (c) 1988-2017, Gaussian, Inc.  All Rights Reserved.
  
 This is part of the Gaussian(R) 16 program.  It is based on
 the Gaussian(R) 09 system (copyright 2009, Gaussian, Inc.),
 the Gaussian(R) 03 system (copyright 2003, Gaussian, Inc.),
 the Gaussian(R) 98 system (copyright 1998, Gaussian, Inc.),
 the Gaussian(R) 94 system (copyright 1995, Gaussian, Inc.),
 the Gaussian 92(TM) system (copyright 1992, Gaussian, Inc.),
 the Gaussian 90(TM) system (copyright 1990, Gaussian, Inc.),
 the Gaussian 88(TM) system (copyright 1988, Gaussian, Inc.),
 the Gaussian 86(TM) system (copyright 1986, Carnegie Mellon
 University), and the Gaussian 82(TM) system (copyright 1983,
 Carnegie Mellon University). Gaussian is a federally registered
 trademark of Gaussian, Inc.
  
 This software contains proprietary and confidential information,
 including trade secrets, belonging to Gaussian, Inc.
  
 This software is provided under written license and may be
 used, copied, transmitted, or stored only in accord with that
 written license.
  
 The following legend is applicable only to US Government
 contracts under FAR:
  
                    RESTRICTED RIGHTS LEGEND
  
 Use, reproduction and disclosure by the US Government is
 subject to restrictions as set forth in subparagraphs (a)
 and (c) of the Commercial Computer Software - Restricted
 Rights clause in FAR 52.227-19.
  
 Gaussian, Inc.
 340 Quinnipiac St., Bldg. 40, Wallingford CT 06492
  
  
 ---------------------------------------------------------------
 Warning -- This program may not be used in any manner that
 competes with the business of Gaussian, Inc. or will provide
 assistance to any competitor of Gaussian, Inc.  The licensee
 of this program is prohibited from giving any competitor of
 Gaussian, Inc. access to this program.  By using this program,
 the user acknowledges that Gaussian, Inc. is engaged in the
 business of creating and licensing software in the field of
 computational chemistry and represents and warrants to the
 licensee that it is not a competitor of Gaussian, Inc. and that
 it will not use this program in any manner prohibited above.
 ---------------------------------------------------------------
  

 Cite this work as:
 Gaussian 16, Revision B.01,
 M. J. Frisch, G. W. Trucks, H. B. Schlegel, G. E. Scuseria, 
 M. A. Robb, J. R. Cheeseman, G. Scalmani, V. Barone, 
 G. A. Petersson, H. Nakatsuji, X. Li, M. Caricato, A. V. Marenich, 
 J. Bloino, B. G. Janesko, R. Gomperts, B. Mennucci, H. P. Hratchian, 
 J. V. Ortiz, A. F. Izmaylov, J. L. Sonnenberg, D. Williams-Young, 
 F. Ding, F. Lipparini, F. Egidi, J. Goings, B. Peng, A. Petrone, 
 T. Henderson, D. Ranasinghe, V. G. Zakrzewski, J. Gao, N. Rega, 
 G. Zheng, W. Liang, M. Hada, M. Ehara, K. Toyota, R. Fukuda, 
 J. Hasegawa, M. Ishida, T. Nakajima, Y. Honda, O. Kitao, H. Nakai, 
 T. Vreven, K. Throssell, J. A. Montgomery, Jr., J. E. Peralta, 
 F. Ogliaro, M. J. Bearpark, J. J. Heyd, E. N. Brothers, K. N. Kudin, 
 V. N. Staroverov, T. A. Keith, R. Kobayashi, J. Normand, 
 K. Raghavachari, A. P. Rendell, J. C. Burant, S. S. Iyengar, 
 J. Tomasi, M. Cossi, J. M. Millam, M. Klene, C. Adamo, R. Cammi, 
 J. W. Ochterski, R. L. Martin, K. Morokuma, O. Farkas, 
 J. B. Foresman, and D. J. Fox, Gaussian, Inc., Wallingford CT, 2016.
 
 ******************************************
 Gaussian 16:  EM64L-G16RevB.01 20-Dec-2017
                18-May-2026 
 ******************************************
 %nprocshared=4
 Will use up to    4 processors via shared memory.
 ----------------------------
 # nmr=giao hf/sto-3g pop=nbo
 ----------------------------
 1/38=1,172=1/1;
 2/12=2,17=6,18=5,40=1/2;
 3/6=3,11=9,25=1,30=1/1,2,3,8;
 4//1;
 5/5=2,38=5/2;
 8/6=1,10=90,11=11/1;
 10/13=100,45=16/2;
 6/7=2,8=2,9=2,10=2,28=1,40=1,64=1/1,7;
 99/9=1/99;
 -------------------
 Title Card Required
 -------------------
 Symbolic Z-matrix:
 Charge =  0 Multiplicity = 1
 C                     0.        0.        0. 
 C                     1.4074    0.       -0.0089 
 C                     2.1227    1.2031    0. 
 C                     1.4425    2.4152    0.0248 
 C                     0.048     2.4316    0.051 
 C                    -0.6827    1.2336    0.0168 
 C                    -2.1622    1.3387   -0.0416 
 O                    -0.5166    3.6811    0.0855 
 C                    -1.8301    3.6799    0.6588 
 C                    -2.7382    2.736    -0.1104 
 C                    -2.3531    5.1234    0.642 
 C                    -3.7723    5.2441    0.0834 
 N                    -4.6864    4.2088    0.5522 
 C                    -4.1809    2.8227    0.4089 
 C                    -4.4432    2.1638    1.7703 
 C                    -5.5396    3.0159    2.378 
 C                    -5.1466    4.4072    1.9293 
 O                    -2.8769    0.342    -0.0964 
 C                    -0.7014   -1.3311   -0.027 
 H                    -2.7233    3.0022   -1.1778 
 H                    -1.7303    3.3698    1.709 
 H                    -4.8318    2.327    -0.3243 
 H                     1.9602   -0.9319   -0.025 
 H                     3.2097    1.1884   -0.0135 
 H                     1.9977    3.3498    0.0331 
 H                    -1.6871    5.7755    0.0631 
 H                    -2.3299    5.5133    1.6675 
 H                    -3.7271    5.1921   -1.0122 
 H                    -4.1755    6.24      0.3053 
 H                    -3.5584    2.1929    2.4158 
 H                    -4.7607    1.1208    1.6746 
 H                    -5.5837    2.9217    3.4668 
 H                    -6.516     2.7348    1.9649 
 H                    -4.3502    4.7849    2.5813 
 H                    -5.9904    5.1023    1.9751 
 H                    -1.3533   -1.44      0.8453 
 H                     0.0131   -2.1612    0.0064 
 H                    -1.2789   -1.4419   -0.95 
 
                          Input orientation:                          
 ---------------------------------------------------------------------
 Center     Atomic      Atomic             Coordinates (Angstroms)
 Number     Number       Type             X           Y           Z
 ---------------------------------------------------------------------
      1          6           0        0.000000    0.000000    0.000000
      2          6           0        1.407400    0.000000   -0.008900
      3          6           0        2.122700    1.203100    0.000000
      4          6           0        1.442500    2.415200    0.024800
      5          6           0        0.048000    2.431600    0.051000
      6          6           0       -0.682700    1.233600    0.016800
      7          6           0       -2.162200    1.338700   -0.041600
      8          8           0       -0.516600    3.681100    0.085500
      9          6           0       -1.830100    3.679900    0.658800
     10          6           0       -2.738200    2.736000   -0.110400
     11          6           0       -2.353100    5.123400    0.642000
     12          6           0       -3.772300    5.244100    0.083400
     13          7           0       -4.686400    4.208800    0.552200
     14          6           0       -4.180900    2.822700    0.408900
     15          6           0       -4.443200    2.163800    1.770300
     16          6           0       -5.539600    3.015900    2.378000
     17          6           0       -5.146600    4.407200    1.929300
     18          8           0       -2.876900    0.342000   -0.096400
     19          6           0       -0.701400   -1.331100   -0.027000
     20          1           0       -2.723300    3.002200   -1.177800
     21          1           0       -1.730300    3.369800    1.709000
     22          1           0       -4.831800    2.327000   -0.324300
     23          1           0        1.960200   -0.931900   -0.025000
     24          1           0        3.209700    1.188400   -0.013500
     25          1           0        1.997700    3.349800    0.033100
     26          1           0       -1.687100    5.775500    0.063100
     27          1           0       -2.329900    5.513300    1.667500
     28          1           0       -3.727100    5.192100   -1.012200
     29          1           0       -4.175500    6.240000    0.305300
     30          1           0       -3.558400    2.192900    2.415800
     31          1           0       -4.760700    1.120800    1.674600
     32          1           0       -5.583700    2.921700    3.466800
     33          1           0       -6.516000    2.734800    1.964900
     34          1           0       -4.350200    4.784900    2.581300
     35          1           0       -5.990400    5.102300    1.975100
     36          1           0       -1.353300   -1.440000    0.845300
     37          1           0        0.013100   -2.161200    0.006400
     38          1           0       -1.278900   -1.441900   -0.950000
 ---------------------------------------------------------------------
                    Distance matrix (angstroms):
                    1          2          3          4          5
     1  C    0.000000
     2  C    1.407428   0.000000
     3  C    2.439940   1.399708   0.000000
     4  C    2.813292   2.415690   1.390134   0.000000
     5  C    2.432608   2.786438   2.411679   1.394843   0.000000
     6  C    1.410011   2.427127   2.805616   2.431608   1.403672
     7  C    2.543414   3.812510   4.287247   3.762595   2.467385
     8  O    3.718156   4.154658   3.621284   2.333294   1.371573
     9  C    4.162325   4.946604   4.710964   3.565296   2.335580
    10  C    3.872418   4.968098   5.098070   4.195169   2.807422
    11  C    5.674370   6.388604   5.984455   4.703388   3.655181
    12  C    6.460479   7.371458   7.147563   5.932980   4.744038
    13  N    6.323074   7.427195   7.463444   6.407696   5.081750
    14  C    5.061103   6.274654   6.521171   5.651214   4.262000
    15  C    5.249573   6.486687   6.867893   6.144220   4.816491
    16  C    6.740750   7.940639   8.225082   7.392436   6.080922
    17  C    7.045076   8.132340   8.175034   7.142228   5.866419
    18  O    2.898760   4.298819   5.074129   4.792709   3.597665
    19  C    1.504832   2.493831   3.794528   4.316683   3.837394
    20  H    4.220993   5.238532   5.301669   4.375466   3.084743
    21  H    4.155740   4.914458   4.739291   3.716780   2.606057
    22  H    5.372745   6.666485   7.052191   6.284623   4.895328
    23  H    2.170587   1.083644   2.141321   3.387266   3.869808
    24  H    3.422667   2.158843   1.087183   2.151628   3.397948
    25  H    3.900392   3.401673   2.150591   1.087103   2.155166
    26  H    6.017199   6.552672   5.951924   4.592111   3.767278
    27  H    6.213330   6.868348   6.417478   5.150504   4.214778
    28  H    6.470991   7.370726   7.152400   5.959136   4.796054
    29  H    7.514360   8.378848   8.070371   6.802183   5.692673
    30  H    4.827744   5.945347   6.252255   5.547549   4.319187
    31  H    5.169598   6.491211   7.084649   6.548053   5.241934
    32  H    7.192547   8.336204   8.623276   7.840369   6.604842
    33  H    7.334727   8.611346   8.990777   8.197796   6.844051
    34  H    6.962946   7.921765   7.835230   6.760661   5.593264
    35  H    8.112914   9.203106   9.215594   8.140773   6.877287
    36  H    2.149315   3.228734   4.447818   4.832420   4.193309
    37  H    2.161249   2.571982   3.971016   4.794472   4.593149
    38  H    2.148758   3.190760   4.412415   4.820111   4.215052
                    6          7          8          9         10
     6  C    0.000000
     7  C    1.484378   0.000000
     8  O    2.454092   2.865483   0.000000
     9  C    2.777242   2.466185   1.433163   0.000000
    10  C    2.549209   1.512930   2.422209   1.518967   0.000000
    11  C    4.279212   3.850676   2.400553   1.535416   2.532605
    12  C    5.063020   4.226133   3.611448   2.559287   2.719832
    13  N    5.016780   3.868030   4.228890   2.906811   2.530546
    14  C    3.862174   2.545654   3.777371   2.514658   1.535765
    15  C    4.252222   3.027661   4.534196   3.219050   2.602205
    16  C    5.686944   4.480435   5.561347   4.142093   3.757435
    17  C    5.801362   4.712407   5.036241   3.625232   3.571229
    18  O    2.371134   1.227685   4.093127   3.578784   2.398055
    19  C    2.565142   3.043350   5.016867   5.182124   4.549375
    20  H    2.952806   2.091176   2.631797   2.151786   1.100194
    21  H    2.919650   2.715972   2.050787   1.099565   2.174346
    22  H    4.304289   2.860668   4.541197   3.436135   2.143874
    23  H    3.417025   4.706387   5.237033   6.008549   5.961187
    24  H    3.892780   5.374076   4.484269   5.662079   6.146704
    25  H    3.415130   4.621133   2.536574   3.892624   4.777666
    26  H    4.651862   4.463393   2.399392   2.183311   3.220788
    27  H    4.873798   4.514026   3.024523   2.151425   3.322805
    28  H    5.098719   4.270792   3.714213   2.945776   2.797069
    29  H    6.111213   5.310034   4.470328   3.489982   3.810073
    30  H    3.865890   2.952600   4.110667   2.878409   2.710973
    31  H    4.403534   3.121702   5.205071   4.021102   3.144138
    32  H    6.226715   5.149895   6.138842   4.748604   4.574682
    33  H    6.330567   4.993066   6.357706   4.955479   4.310295
    34  H    5.713051   4.852138   4.705729   3.356775   3.747237
    35  H    6.853719   5.734708   5.962624   4.589549   4.530507
    36  H    2.878238   3.026894   5.244333   5.145435   4.502253
    37  H    3.465388   4.121108   5.866797   6.159664   5.618350
    38  H    2.906623   3.055674   5.281902   5.396748   4.504368
                   11         12         13         14         15
    11  C    0.000000
    12  C    1.529945   0.000000
    13  N    2.507757   1.458492   0.000000
    14  C    2.947611   2.477112   1.482342   0.000000
    15  C    3.794840   3.575470   2.392684   1.535044   0.000000
    16  C    4.196312   3.654232   2.341902   2.400156   1.515740
    17  C    3.158121   2.448765   1.465452   2.398923   2.356458
    18  O    4.866353   4.986447   4.318230   2.847739   3.042502
    19  C    6.695987   7.257814   6.848809   5.436082   5.426387
    20  H    2.819257   2.777974   2.881414   2.162044   3.514579
    21  H    2.145106   3.213307   3.283388   2.827546   2.969515
    22  H    3.859733   3.130213   2.081001   1.098623   2.136585
    23  H    7.464322   8.427116   8.422425   7.210992   7.335529
    24  H    6.845338   8.075049   8.472970   7.580919   7.918347
    25  H    4.737708   6.073204   6.759034   6.212420   6.775666
    26  H    1.097231   2.151943   3.419001   3.880418   4.853349
    27  H    1.097365   2.159250   2.915254   3.499943   3.961787
    28  H    2.151505   1.097764   2.081942   2.799914   4.174411
    29  H    2.163632   1.097099   2.108969   3.418874   4.339734
    30  H    3.631383   3.846513   2.968037   2.193582   1.095622
    31  H    4.783681   4.528847   3.286495   2.198779   1.094447
    32  H    4.823251   4.485767   3.310086   3.365769   2.180198
    33  H    4.978475   4.167076   2.741502   2.807411   2.158798
    34  H    2.804260   2.604676   2.135923   2.932271   2.745275
    35  H    3.873958   2.918665   2.126829   3.305125   3.327244
    36  H    6.642225   7.149073   6.565394   5.133846   4.836371
    37  H    7.685590   8.317070   7.934740   6.526171   6.455662
    38  H    6.840434   7.210240   6.767427   5.334325   5.514880
                   16         17         18         19         20
    16  C    0.000000
    17  C    1.513769   0.000000
    18  O    4.512468   5.077485   0.000000
    19  C    6.934595   7.517646   2.745338   0.000000
    20  H    4.536017   4.183357   2.875706   4.918324   0.000000
    21  H    3.883758   3.577127   3.706984   5.115740   3.074865
    22  H    2.877150   3.083025   2.795317   5.525422   2.372789
    23  H    8.809457   9.101202   5.002545   2.691371   6.224248
    24  H    9.252528   9.163127   6.145727   4.652394   6.312365
    25  H    7.900692   7.466906   5.729342   5.403663   4.886200
    26  H    5.274079   4.162101   5.564529   7.175199   3.210099
    27  H    4.128437   3.037399   5.491165   7.236653   3.815248
    28  H    4.417517   3.359088   5.008493   7.257935   2.414684
    29  H    4.068375   2.634306   6.052613   8.336747   3.846013
    30  H    2.145673   2.768065   3.193966   5.152504   3.777078
    31  H    2.166301   3.318767   2.700310   5.038370   3.978297
    32  H    1.093757   2.182126   5.165076   7.357296   5.455335
    33  H    1.096825   2.161815   4.818454   7.369449   4.932813
    34  H    2.141346   1.096364   5.392592   7.584354   4.467175
    35  H    2.172237   1.094194   6.053549   8.565662   5.002513
    36  H    6.303120   7.053646   2.526595   1.094413   5.069810
    37  H    7.953573   8.571110   3.824745   1.095761   5.962459
    38  H    7.007220   7.580333   2.542545   1.094400   4.678484
                   21         22         23         24         25
    21  H    0.000000
    22  H    3.852407   0.000000
    23  H    5.927155   7.539315   0.000000
    24  H    5.668255   8.127652   2.461108   0.000000
    25  H    4.087423   6.914906   4.282258   2.478460   0.000000
    26  H    2.915175   4.683094   7.635429   6.710142   4.411652
    27  H    2.226170   4.514341   7.925283   7.226181   5.106870
    28  H    3.835742   3.146803   8.415659   8.071320   6.104102
    29  H    4.023360   4.017299   9.444155   8.953294   6.821711
    30  H    2.286178   3.024513   6.795353   7.260695   6.155154
    31  H    3.773925   2.335717   7.229987   8.147486   7.303351
    32  H    4.259031   3.910430   9.162605   9.614609   8.333738
    33  H    4.834422   2.871109   9.447241  10.044633   8.751752
    34  H    3.102788   3.836108   8.904816   8.764696   6.989182
    35  H    4.606606   3.785748  10.179588  10.193870   8.405496
    36  H    4.901253   5.259108   3.463361   5.335447   5.901784
    37  H    6.044026   6.612591   2.302903   4.630169   5.857514
    38  H    5.516022   5.217203   3.406977   5.286118   5.887528
                   26         27         28         29         30
    26  H    0.000000
    27  H    1.748153   0.000000
    28  H    2.378703   3.039100   0.000000
    29  H    2.542942   2.406225   1.742115   0.000000
    30  H    4.676749   3.618594   4.557943   4.605870   0.000000
    31  H    5.806047   5.020249   4.986252   5.331384   1.773218
    32  H    5.908709   4.532227   5.353795   4.794708   2.395327
    33  H    6.015062   5.033085   4.762291   4.529750   3.040455
    34  H    3.796672   2.333926   3.669783   2.707030   2.715290
    35  H    4.756820   3.696322   3.748940   2.715963   3.817519
    36  H    7.265446   7.069522   7.284915   8.199928   4.530662
    37  H    8.116964   8.194318   8.312500   9.392224   6.125276
    38  H    7.299580   7.505379   7.071599   8.305279   5.453118
                   31         32         33         34         35
    31  H    0.000000
    32  H    2.670684   0.000000
    33  H    2.402155   1.777588   0.000000
    34  H    3.796873   2.403570   3.045250   0.000000
    35  H    4.177895   2.673124   2.425163   1.777211   0.000000
    36  H    4.342328   6.617626   6.733196   7.123516   8.098199
    37  H    6.028564   8.314711   8.392597   8.597488   9.626849
    38  H    5.057557   7.555159   7.305387   7.789480   8.577937
                   36         37         38
    36  H    0.000000
    37  H    1.758105   0.000000
    38  H    1.796842   1.761067   0.000000
 Stoichiometry    C16H19NO2
 Framework group  C1[X(C16H19NO2)]
 Deg. of freedom   108
 Full point group                 C1      NOp   1
 Largest Abelian subgroup         C1      NOp   1
 Largest concise Abelian subgroup C1      NOp   1
                         Standard orientation:                         
 ---------------------------------------------------------------------
 Center     Atomic      Atomic             Coordinates (Angstroms)
 Number     Number       Type             X           Y           Z
 ---------------------------------------------------------------------
      1          6           0       -3.027136    0.912912    0.026181
      2          6           0       -4.185961    0.177802    0.338583
      3          6           0       -4.130621   -1.211932    0.495930
      4          6           0       -2.920047   -1.879595    0.350296
      5          6           0       -1.759635   -1.163153    0.057482
      6          6           0       -1.804634    0.227474   -0.128070
      7          6           0       -0.543893    0.903773   -0.523707
      8          8           0       -0.622219   -1.921664   -0.052788
      9          6           0        0.571221   -1.171443    0.205721
     10          6           0        0.661137    0.014650   -0.738927
     11          6           0        1.767679   -2.121478    0.052660
     12          6           0        2.887504   -1.545727   -0.816381
     13          7           0        3.180270   -0.140841   -0.556034
     14          6           0        1.996913    0.751879   -0.563523
     15          6           0        2.132405    1.598162    0.709979
     16          6           0        3.609292    1.517236    1.041223
     17          6           0        3.938796    0.085291    0.677276
     18          8           0       -0.498796    2.113485   -0.728090
     19          6           0       -3.165773    2.401640   -0.144073
     20          1           0        0.578183   -0.337572   -1.777910
     21          1           0        0.533039   -0.843841    1.254654
     22          1           0        2.121583    1.428735   -1.419850
     23          1           0       -5.140630    0.675888    0.460248
     24          1           0       -5.034795   -1.767998    0.730939
     25          1           0       -2.876400   -2.958781    0.473771
     26          1           0        1.452578   -3.085134   -0.366857
     27          1           0        2.160868   -2.348763    1.051637
     28          1           0        2.604321   -1.647761   -1.872072
     29          1           0        3.794320   -2.152980   -0.704331
     30          1           0        1.549125    1.184166    1.539906
     31          1           0        1.818116    2.635281    0.556948
     32          1           0        3.812246    1.741597    2.092306
     33          1           0        4.179788    2.218134    0.419690
     34          1           0        3.615399   -0.576725    1.489165
     35          1           0        5.012331   -0.057394    0.520995
     36          1           0       -2.514112    2.931274    0.557756
     37          1           0       -4.189226    2.734807    0.061444
     38          1           0       -2.933992    2.693437   -1.173074
 ---------------------------------------------------------------------
 Rotational constants (GHZ):           0.8024918           0.2711369           0.2184969
 Standard basis: STO-3G (5D, 7F)
 There are   114 symmetry adapted cartesian basis functions of A   symmetry.
 There are   114 symmetry adapted basis functions of A   symmetry.
   114 basis functions,   342 primitive gaussians,   114 cartesian basis functions
    69 alpha electrons       69 beta electrons
       nuclear repulsion energy      1494.7667544342 Hartrees.
 NAtoms=   38 NActive=   38 NUniq=   38 SFac= 1.00D+00 NAtFMM=   60 NAOKFM=F Big=F
 Integral buffers will be    131072 words long.
 Raffenetti 1 integral format.
 Two-electron integral symmetry is turned on.
 One-electron integrals computed using PRISM.
 NBasis=   114 RedAO= T EigKep=  1.74D-01  NBF=   114
 NBsUse=   114 1.00D-06 EigRej= -1.00D+00 NBFU=   114
 ExpMin= 1.69D-01 ExpMax= 1.31D+02 ExpMxC= 1.31D+02 IAcc=3 IRadAn=         5 AccDes= 0.00D+00
 Harris functional with IExCor=  205 and IRadAn=       5 diagonalized for initial guess.
 HarFok:  IExCor=  205 AccDes= 0.00D+00 IRadAn=         5 IDoV= 1 UseB2=F ITyADJ=14
 ICtDFT=  3500011 ScaDFX=  1.000000  1.000000  1.000000  1.000000
 FoFCou: FMM=F IPFlag=           0 FMFlag=      100000 FMFlg1=           0
         NFxFlg=           0 DoJE=T BraDBF=F KetDBF=T FulRan=T
         wScrn=  0.000000 ICntrl=       500 IOpCl=  0 I1Cent=   200000004 NGrid=           0
         NMat0=    1 NMatS0=      1 NMatT0=    0 NMatD0=    1 NMtDS0=    0 NMtDT0=    0
 Petite list used in FoFCou.
 Requested convergence on RMS density matrix=1.00D-08 within 128 cycles.
 Requested convergence on MAX density matrix=1.00D-06.
 Requested convergence on             energy=1.00D-06.
 No special actions if energy rises.
 Integral accuracy reduced to 1.0D-05 until final iterations.
 Initial convergence to 1.0D-05 achieved.  Increase integral accuracy.
 SCF Done:  E(RHF) =  -811.053305697     A.U. after   17 cycles
            NFock= 17  Conv=0.71D-08     -V/T= 2.0093
 Range of M.O.s used for correlation:     1   114
 NBasis=   114 NAE=    69 NBE=    69 NFC=     0 NFV=     0
 NROrb=    114 NOA=    69 NOB=    69 NVA=    45 NVB=    45
          Differentiating once with respect to magnetic field using GIAOs.
          Electric field/nuclear overlap derivatives assumed to be zero.
 FoFCou: FMM=F IPFlag=           0 FMFlag=      100000 FMFlg1=           0
         NFxFlg=           0 DoJE=F BraDBF=F KetDBF=T FulRan=T
         wScrn=  0.000000 ICntrl=      6100 IOpCl=  0 I1Cent=           7 NGrid=          38
         NMat0=    1 NMatS0=      1 NMatT0=    0 NMatD0=    1 NMtDS0=    0 NMtDT0=    0
 Symmetry not used in FoFCou.
 FoFJK:  IHMeth= 1 ICntrl=    6127 DoSepK=F KAlg= 0 I1Cent=           0 FoldK=F
 IRaf=         1 NMat=       1 IRICut=       1 DoRegI=T DoRafI=F ISym2E= 0 IDoP0=0 IntGTp=1.
          There are     3 degrees of freedom in the 1st order CPHF.  IDoFFX=0 NUNeed=     3.
      3 vectors produced by pass  0 Test12= 1.04D-13 3.33D-08 XBig12= 2.74D+01 1.57D+00.
 AX will form     3 AO Fock derivatives at one time.
      3 vectors produced by pass  1 Test12= 1.04D-13 3.33D-08 XBig12= 1.68D-01 2.34D-01.
      3 vectors produced by pass  2 Test12= 1.04D-13 3.33D-08 XBig12= 3.78D-03 2.33D-02.
      3 vectors produced by pass  3 Test12= 1.04D-13 3.33D-08 XBig12= 1.20D-04 2.28D-03.
      3 vectors produced by pass  4 Test12= 1.04D-13 3.33D-08 XBig12= 1.60D-06 1.68D-04.
      3 vectors produced by pass  5 Test12= 1.04D-13 3.33D-08 XBig12= 1.94D-08 1.85D-05.
      3 vectors produced by pass  6 Test12= 1.04D-13 3.33D-08 XBig12= 3.58D-10 3.12D-06.
      3 vectors produced by pass  7 Test12= 1.04D-13 3.33D-08 XBig12= 5.55D-12 3.07D-07.
      1 vectors produced by pass  8 Test12= 1.04D-13 3.33D-08 XBig12= 1.06D-13 4.84D-08.
 InvSVY:  IOpt=1 It=  1 EMax= 4.44D-16
 Solved reduced A of dimension    25 with     3 vectors.
 Calculating GIAO nuclear magnetic shielding tensors.
 SCF GIAO Magnetic shielding tensor (ppm):
      1  C    Isotropic =   113.7346   Anisotropy =   169.7958
   XX=    84.3892   YX=    15.5969   ZX=    26.3754
   XY=    19.3828   YY=    38.1225   ZY=    20.4657
   XZ=    26.1627   YZ=    23.4614   ZZ=   218.6923
   Eigenvalues:    31.3411    82.9310   226.9319
      2  C    Isotropic =   123.2283   Anisotropy =   143.9663
   XX=    56.1675   YX=    40.2447   ZX=    26.3223
   XY=    34.5288   YY=   100.5421   ZY=     7.9854
   XZ=    25.9031   YZ=    10.0712   ZZ=   212.9753
   Eigenvalues:    32.9836   117.4954   219.2058
      3  C    Isotropic =   116.3357   Anisotropy =   169.5804
   XX=    49.1052   YX=   -31.9887   ZX=    38.3879
   XY=   -33.8458   YY=    80.4929   ZY=    24.1513
   XZ=    37.2951   YZ=    23.7910   ZZ=   219.4091
   Eigenvalues:    18.3519   101.2660   229.3893
      4  C    Isotropic =   131.2300   Anisotropy =   145.7476
   XX=   119.9320   YX=     5.3085   ZX=    18.7955
   XY=     0.6638   YY=    51.7427   ZY=    20.9564
   XZ=    17.9326   YZ=    26.0938   ZZ=   222.0154
   Eigenvalues:    48.5488   116.7462   228.3951
      5  C    Isotropic =   104.2409   Anisotropy =   133.1296
   XX=    59.3922   YX=    20.5698   ZX=    20.1127
   XY=    10.5530   YY=    67.4214   ZY=    15.8930
   XZ=    27.1777   YZ=    16.4890   ZZ=   185.9091
   Eigenvalues:    46.6751    73.0536   192.9939
      6  C    Isotropic =   130.6650   Anisotropy =   149.0522
   XX=    82.8220   YX=   -14.6442   ZX=    34.5995
   XY=   -11.3661   YY=    90.1678   ZY=    22.7759
   XZ=    38.1246   YZ=    17.3440   ZZ=   219.0053
   Eigenvalues:    62.1472    99.8147   230.0331
      7  C    Isotropic =    90.7362   Anisotropy =   136.4547
   XX=   -30.9258   YX=    13.1039   ZX=    53.9620
   XY=    13.4824   YY=   134.8016   ZY=     1.3468
   XZ=    50.5263   YZ=     2.0668   ZZ=   168.3327
   Eigenvalues:   -44.6640   135.1665   181.7059
      8  O    Isotropic =   337.1342   Anisotropy =    83.4084
   XX=   301.7201   YX=   -38.6627   ZX=     2.7435
   XY=   -52.6192   YY=   330.0808   ZY=     9.5627
   XZ=    28.3257   YZ=    46.8620   ZZ=   379.6018
   Eigenvalues:   260.8023   357.8605   392.7398
      9  C    Isotropic =   188.0404   Anisotropy =    50.4512
   XX=   212.8227   YX=    15.4570   ZX=     7.7704
   XY=    17.5761   YY=   184.3424   ZY=    -0.1716
   XZ=     8.1642   YZ=     5.6369   ZZ=   166.9559
   Eigenvalues:   165.6112   176.8354   221.6745
     10  C    Isotropic =   211.4264   Anisotropy =    11.4315
   XX=   217.3530   YX=    -0.5588   ZX=     6.1887
   XY=    -1.6210   YY=   206.7730   ZY=     4.4513
   XZ=     0.5565   YZ=     9.9365   ZZ=   210.1531
   Eigenvalues:   200.5480   214.6837   219.0474
     11  C    Isotropic =   220.4411   Anisotropy =    22.6328
   XX=   230.1869   YX=    -8.6118   ZX=    -6.9967
   XY=    -4.5682   YY=   225.0599   ZY=     0.6691
   XZ=    -3.4018   YZ=     1.6198   ZZ=   206.0764
   Eigenvalues:   205.0006   220.7930   235.5296
     12  C    Isotropic =   205.4122   Anisotropy =    33.8934
   XX=   197.6042   YX=     5.4562   ZX=    -3.9584
   XY=     7.1784   YY=   224.1080   ZY=    12.3611
   XZ=    -3.1414   YZ=     7.6134   ZZ=   194.5245
   Eigenvalues:   188.2959   199.9329   228.0078
     13  N    Isotropic =   301.6620   Anisotropy =    53.8931
   XX=   311.7753   YX=   -30.6400   ZX=    33.3939
   XY=   -20.0807   YY=   304.5985   ZY=    23.9655
   XZ=    37.2920   YZ=    41.1012   ZZ=   288.6123
   Eigenvalues:   237.6202   329.7752   337.5907
     14  C    Isotropic =   195.1450   Anisotropy =    38.7537
   XX=   206.9053   YX=   -18.4529   ZX=     4.5087
   XY=   -16.7706   YY=   198.3885   ZY=     8.9196
   XZ=     6.0696   YZ=    13.6108   ZZ=   180.1413
   Eigenvalues:   169.9224   194.5319   220.9809
     15  C    Isotropic =   214.2201   Anisotropy =    24.6498
   XX=   222.9500   YX=    -9.3893   ZX=    10.4506
   XY=     0.4111   YY=   206.8314   ZY=    14.2881
   XZ=     9.3422   YZ=    17.9646   ZZ=   212.8790
   Eigenvalues:   190.4499   221.5571   230.6533
     16  C    Isotropic =   216.3160   Anisotropy =    16.4325
   XX=   222.7470   YX=    -5.3811   ZX=    10.4410
   XY=    -5.2612   YY=   220.9143   ZY=    11.8362
   XZ=     6.8058   YZ=     6.9749   ZZ=   205.2868
   Eigenvalues:   196.9387   224.7384   227.2710
     17  C    Isotropic =   199.2912   Anisotropy =    45.1444
   XX=   196.4839   YX=     1.8838   ZX=    20.9380
   XY=    -5.8556   YY=   195.9849   ZY=    18.5490
   XZ=    25.9438   YZ=    15.4191   ZZ=   205.4048
   Eigenvalues:   170.4362   198.0500   229.3875
     18  O    Isotropic =  -344.2466   Anisotropy =  1261.5600
   XX=  -341.4895   YX=   -44.6256   ZX=   223.5240
   XY=    -3.6979   YY= -1106.1690   ZY=   246.3087
   XZ=   193.9130   YZ=   203.5328   ZZ=   414.9187
   Eigenvalues: -1142.4676  -387.0656   496.7934
     19  C    Isotropic =   218.0438   Anisotropy =    23.3598
   XX=   215.0183   YX=    -1.4452   ZX=    -1.5454
   XY=    -1.7105   YY=   233.0959   ZY=    -3.1862
   XZ=    -2.0833   YZ=    -3.6390   ZZ=   206.0173
   Eigenvalues:   205.1865   215.3280   233.6170
     20  H    Isotropic =    31.2217   Anisotropy =    10.7723
   XX=    29.3328   YX=     0.6773   ZX=     3.7960
   XY=     0.5100   YY=    26.6772   ZY=     1.2721
   XZ=    -0.1095   YZ=     2.6656   ZZ=    37.6550
   Eigenvalues:    26.3080    28.9538    38.4032
     21  H    Isotropic =    31.3947   Anisotropy =     5.7855
   XX=    31.5610   YX=     0.4334   ZX=    -0.5824
   XY=     1.6467   YY=    27.6741   ZY=     2.7193
   XZ=     1.5032   YZ=    -0.3055   ZZ=    34.9491
   Eigenvalues:    27.2651    31.6673    35.2517
     22  H    Isotropic =    30.2963   Anisotropy =    13.3334
   XX=    26.5155   YX=    -0.2816   ZX=     0.8884
   XY=     1.2403   YY=    31.9765   ZY=    -7.4166
   XZ=    -0.3946   YZ=    -6.5704   ZZ=    32.3968
   Eigenvalues:    25.0127    26.6909    39.1852
     23  H    Isotropic =    25.9012   Anisotropy =     6.0408
   XX=    27.7167   YX=     1.4672   ZX=    -1.2808
   XY=     1.4208   YY=    28.4199   ZY=    -1.2074
   XZ=    -1.5006   YZ=    -1.0928   ZZ=    21.5671
   Eigenvalues:    21.1691    26.6062    29.9284
     24  H    Isotropic =    25.2723   Anisotropy =     3.7189
   XX=    27.0570   YX=    -0.4780   ZX=    -0.8395
   XY=    -0.8114   YY=    27.1448   ZY=    -0.5395
   XZ=    -0.7944   YZ=    -0.5611   ZZ=    21.6151
   Eigenvalues:    21.4233    26.6421    27.7516
     25  H    Isotropic =    25.6991   Anisotropy =     7.1265
   XX=    29.4392   YX=     1.6953   ZX=    -1.5577
   XY=     1.1606   YY=    27.2096   ZY=    -0.9522
   XZ=    -1.5998   YZ=    -0.6603   ZZ=    20.4485
   Eigenvalues:    20.1342    26.5129    30.4501
     26  H    Isotropic =    31.5802   Anisotropy =    14.5084
   XX=    29.8394   YX=     1.7371   ZX=    -0.4708
   XY=     2.2615   YY=    40.1584   ZY=     3.3490
   XZ=    -0.3548   YZ=     3.8011   ZZ=    24.7429
   Eigenvalues:    23.8343    29.6539    41.2525
     27  H    Isotropic =    31.7479   Anisotropy =    12.4685
   XX=    30.2757   YX=    -1.9701   ZX=     3.5294
   XY=    -1.2341   YY=    30.1919   ZY=    -5.1794
   XZ=     3.8940   YZ=    -5.8091   ZZ=    34.7760
   Eigenvalues:    26.3315    28.8519    40.0602
     28  H    Isotropic =    31.5419   Anisotropy =    13.3367
   XX=    27.4983   YX=    -0.0061   ZX=    -0.2021
   XY=     0.0136   YY=    28.8331   ZY=     5.3825
   XZ=    -1.0691   YZ=     4.5065   ZZ=    38.2943
   Eigenvalues:    26.6434    27.5492    40.4330
     29  H    Isotropic =    31.6966   Anisotropy =    14.8248
   XX=    35.9570   YX=    -5.9048   ZX=    -1.6218
   XY=    -6.6055   YY=    33.8109   ZY=     2.2786
   XZ=    -1.2639   YZ=     1.6870   ZZ=    25.3219
   Eigenvalues:    24.8812    28.6289    41.5798
     30  H    Isotropic =    33.0412   Anisotropy =     7.7369
   XX=    34.4145   YX=     2.0559   ZX=    -4.2564
   XY=     3.1612   YY=    29.3583   ZY=     1.8021
   XZ=    -2.2762   YZ=     1.7903   ZZ=    35.3507
   Eigenvalues:    27.1248    33.7996    38.1991
     31  H    Isotropic =    32.0597   Anisotropy =    15.2685
   XX=    30.4121   YX=    -5.0458   ZX=     0.6890
   XY=    -3.5915   YY=    40.6410   ZY=     0.3875
   XZ=     3.0592   YZ=     2.1625   ZZ=    25.1260
   Eigenvalues:    24.0904    29.8500    42.2387
     32  H    Isotropic =    32.4353   Anisotropy =    15.6277
   XX=    29.7013   YX=     1.7690   ZX=     4.7794
   XY=     1.9684   YY=    29.4446   ZY=     5.1068
   XZ=     5.3368   YZ=     5.4768   ZZ=    38.1601
   Eigenvalues:    26.7091    27.7431    42.8538
     33  H    Isotropic =    31.8554   Anisotropy =    14.9670
   XX=    33.3082   YX=     6.5334   ZX=    -2.2156
   XY=     6.9624   YY=    35.3263   ZY=    -2.7333
   XZ=    -1.6991   YZ=    -2.3777   ZZ=    26.9316
   Eigenvalues:    26.2129    27.5198    41.8333
     34  H    Isotropic =    32.2927   Anisotropy =     8.9844
   XX=    29.0884   YX=     0.9194   ZX=     3.2249
   XY=     0.8968   YY=    33.2061   ZY=    -3.2314
   XZ=     3.7029   YZ=    -4.3624   ZZ=    34.5836
   Eigenvalues:    26.3809    32.2149    38.2823
     35  H    Isotropic =    31.6280   Anisotropy =    15.1832
   XX=    41.2645   YX=    -2.2155   ZX=     0.5685
   XY=    -2.3442   YY=    27.9972   ZY=     1.1007
   XZ=     2.4679   YZ=     1.3680   ZZ=    25.6224
   Eigenvalues:    24.7672    28.3667    41.7502
     36  H    Isotropic =    30.9647   Anisotropy =    10.4813
   XX=    31.8297   YX=     3.0602   ZX=     3.0153
   XY=     2.0368   YY=    33.7501   ZY=     2.9328
   XZ=     1.9106   YZ=     6.0267   ZZ=    27.3141
   Eigenvalues:    24.8390    30.1027    37.9522
     37  H    Isotropic =    30.9848   Anisotropy =    12.2354
   XX=    36.9190   YX=    -3.3440   ZX=    -2.3485
   XY=    -4.0902   YY=    31.7244   ZY=    -0.1182
   XZ=    -2.3809   YZ=    -0.1003   ZZ=    24.3108
   Eigenvalues:    23.7964    30.0162    39.1417
     38  H    Isotropic =    30.9798   Anisotropy =    10.8447
   XX=    29.0107   YX=    -0.7206   ZX=    -2.4285
   XY=    -0.0755   YY=    30.7561   ZY=    -4.2975
   XZ=    -1.2926   YZ=    -7.6378   ZZ=    33.1726
   Eigenvalues:    25.2678    29.4620    38.2096
 End of Minotr F.D. properties file   721 does not exist.
 End of Minotr F.D. properties file   722 does not exist.
 End of Minotr F.D. properties file   788 does not exist.

 **********************************************************************

            Population analysis using the SCF Density.

 **********************************************************************

 Orbital symmetries:
       Occupied  (A) (A) (A) (A) (A) (A) (A) (A) (A) (A) (A) (A)
                 (A) (A) (A) (A) (A) (A) (A) (A) (A) (A) (A) (A)
                 (A) (A) (A) (A) (A) (A) (A) (A) (A) (A) (A) (A)
                 (A) (A) (A) (A) (A) (A) (A) (A) (A) (A) (A) (A)
                 (A) (A) (A) (A) (A) (A) (A) (A) (A) (A) (A) (A)
                 (A) (A) (A) (A) (A) (A) (A) (A) (A)
       Virtual   (A) (A) (A) (A) (A) (A) (A) (A) (A) (A) (A) (A)
                 (A) (A) (A) (A) (A) (A) (A) (A) (A) (A) (A) (A)
                 (A) (A) (A) (A) (A) (A) (A) (A) (A) (A) (A) (A)
                 (A) (A) (A) (A) (A) (A) (A) (A) (A)
 The electronic state is 1-A.
 Alpha  occ. eigenvalues --  -20.29973 -20.26409 -15.30841 -11.11744 -11.11397
 Alpha  occ. eigenvalues --  -11.09801 -11.07913 -11.07613 -11.06958 -11.06509
 Alpha  occ. eigenvalues --  -11.05326 -11.05032 -11.04479 -11.04418 -11.04370
 Alpha  occ. eigenvalues --  -11.04070 -11.02990 -11.02343 -11.01987  -1.34566
 Alpha  occ. eigenvalues --   -1.31705  -1.19579  -1.09813  -1.05034  -1.03071
 Alpha  occ. eigenvalues --   -0.99229  -0.98071  -0.95332  -0.91811  -0.88258
 Alpha  occ. eigenvalues --   -0.84444  -0.80475  -0.77639  -0.76454  -0.74360
 Alpha  occ. eigenvalues --   -0.71457  -0.68408  -0.66179  -0.63939  -0.62226
 Alpha  occ. eigenvalues --   -0.61893  -0.60330  -0.57932  -0.57510  -0.56022
 Alpha  occ. eigenvalues --   -0.55466  -0.54917  -0.53314  -0.52721  -0.51537
 Alpha  occ. eigenvalues --   -0.50685  -0.49925  -0.48734  -0.48042  -0.47150
 Alpha  occ. eigenvalues --   -0.46682  -0.45438  -0.44630  -0.44013  -0.43540
 Alpha  occ. eigenvalues --   -0.43278  -0.42127  -0.40009  -0.39434  -0.37005
 Alpha  occ. eigenvalues --   -0.31767  -0.27443  -0.26949  -0.24660
 Alpha virt. eigenvalues --    0.21133   0.26741   0.34556   0.48818   0.51131
 Alpha virt. eigenvalues --    0.52259   0.54915   0.56142   0.58184   0.59103
 Alpha virt. eigenvalues --    0.60563   0.60959   0.61919   0.63687   0.64594
 Alpha virt. eigenvalues --    0.65709   0.66824   0.68407   0.68619   0.69588
 Alpha virt. eigenvalues --    0.70418   0.70643   0.71719   0.72973   0.73615
 Alpha virt. eigenvalues --    0.73677   0.74433   0.75307   0.75875   0.77213
 Alpha virt. eigenvalues --    0.78005   0.79523   0.79977   0.80134   0.82173
 Alpha virt. eigenvalues --    0.83514   0.84991   0.85773   0.86606   0.87020
 Alpha virt. eigenvalues --    0.90241   0.93457   1.00621   1.11820   1.13263
          Condensed to atoms (all electrons):
               1          2          3          4          5          6
     1  C    4.757651   0.505927  -0.028790  -0.009900  -0.027857   0.496741
     2  C    0.505927   4.808440   0.501830  -0.031031  -0.011178  -0.030903
     3  C   -0.028790   0.501830   4.760102   0.509482  -0.029308  -0.009526
     4  C   -0.009900  -0.031031   0.509482   4.806571   0.498695  -0.031902
     5  C   -0.027857  -0.011178  -0.029308   0.498695   4.756429   0.489257
     6  C    0.496741  -0.030903  -0.009526  -0.031902   0.489257   4.874000
     7  C   -0.023267   0.000756   0.000018   0.000797  -0.029646   0.389266
     8  O    0.000242   0.000007   0.000351  -0.027092   0.292891  -0.016715
     9  C    0.000029   0.000000  -0.000020   0.001686  -0.040494  -0.007505
    10  C    0.000615  -0.000007  -0.000000  -0.000034  -0.004661  -0.035021
    11  C    0.000000   0.000000   0.000000  -0.000014   0.001603  -0.000004
    12  C   -0.000000  -0.000000  -0.000000   0.000000  -0.000015  -0.000000
    13  N    0.000000  -0.000000  -0.000000   0.000000  -0.000000  -0.000002
    14  C   -0.000004   0.000000  -0.000000   0.000000   0.000016   0.000565
    15  C   -0.000000   0.000000  -0.000000   0.000000   0.000001   0.000012
    16  C   -0.000000   0.000000   0.000000   0.000000  -0.000000   0.000000
    17  C   -0.000000   0.000000   0.000000  -0.000000   0.000000   0.000000
    18  O   -0.001025  -0.000004  -0.000000  -0.000002   0.000322  -0.027271
    19  C    0.381277  -0.030497   0.000884   0.000011   0.000712  -0.023993
    20  H   -0.000016   0.000000   0.000000  -0.000006   0.000068   0.000034
    21  H   -0.000015  -0.000001   0.000000   0.000103  -0.003331   0.000743
    22  H    0.000000  -0.000000   0.000000  -0.000000  -0.000001  -0.000005
    23  H   -0.024864   0.395356  -0.026828   0.001402   0.000048   0.001250
    24  H    0.001312  -0.024731   0.393397  -0.025181   0.001375   0.000010
    25  H    0.000035   0.001364  -0.024614   0.393468  -0.025292   0.001227
    26  H    0.000000   0.000000   0.000000  -0.000006   0.000106   0.000001
    27  H   -0.000000  -0.000000  -0.000000   0.000001  -0.000040  -0.000000
    28  H    0.000000  -0.000000  -0.000000   0.000000  -0.000001  -0.000000
    29  H    0.000000   0.000000   0.000000  -0.000000   0.000000   0.000000
    30  H    0.000001  -0.000000  -0.000000  -0.000000   0.000000  -0.000028
    31  H   -0.000000   0.000000   0.000000   0.000000  -0.000000   0.000003
    32  H    0.000000  -0.000000  -0.000000  -0.000000   0.000000   0.000000
    33  H    0.000000   0.000000   0.000000  -0.000000   0.000000  -0.000000
    34  H   -0.000000   0.000000  -0.000000   0.000000  -0.000000   0.000000
    35  H    0.000000  -0.000000  -0.000000  -0.000000  -0.000000  -0.000000
    36  H   -0.021142   0.000801  -0.000023   0.000002   0.000002  -0.001980
    37  H   -0.020524  -0.005722   0.000062  -0.000000  -0.000016   0.001127
    38  H   -0.021114   0.000634  -0.000024   0.000003  -0.000002  -0.001682
               7          8          9         10         11         12
     1  C   -0.023267   0.000242   0.000029   0.000615   0.000000  -0.000000
     2  C    0.000756   0.000007   0.000000  -0.000007   0.000000  -0.000000
     3  C    0.000018   0.000351  -0.000020  -0.000000   0.000000  -0.000000
     4  C    0.000797  -0.027092   0.001686  -0.000034  -0.000014   0.000000
     5  C   -0.029646   0.292891  -0.040494  -0.004661   0.001603  -0.000015
     6  C    0.389266  -0.016715  -0.007505  -0.035021  -0.000004  -0.000000
     7  C    4.766851  -0.001644  -0.024512   0.357166   0.000725   0.000042
     8  O   -0.001644   7.797490   0.261669  -0.017573  -0.019118   0.000243
     9  C   -0.024512   0.261669   4.743170   0.358157   0.358435  -0.020307
    10  C    0.357166  -0.017573   0.358157   4.828966  -0.022959  -0.009478
    11  C    0.000725  -0.019118   0.358435  -0.022959   4.779998   0.358516
    12  C    0.000042   0.000243  -0.020307  -0.009478   0.358516   4.697557
    13  N    0.000355  -0.000000  -0.003202  -0.017032  -0.021883   0.333071
    14  C   -0.019122   0.000241  -0.020954   0.358509  -0.004223  -0.031289
    15  C   -0.002566   0.000001  -0.001454  -0.019106   0.000102   0.001059
    16  C    0.000017   0.000000   0.000010   0.000805   0.000001   0.001359
    17  C   -0.000009  -0.000000   0.000118   0.000811  -0.001516  -0.034172
    18  O    0.432473  -0.000000   0.000293  -0.025798  -0.000001  -0.000000
    19  C   -0.002558  -0.000001  -0.000000   0.000007  -0.000000   0.000000
    20  H   -0.024729  -0.000804  -0.022703   0.378454  -0.001865  -0.000502
    21  H   -0.002597  -0.018909   0.378025  -0.025932  -0.025387   0.000932
    22  H   -0.000752  -0.000005   0.001229  -0.026722  -0.000065   0.001332
    23  H   -0.000014   0.000000  -0.000000   0.000000   0.000000  -0.000000
    24  H    0.000001  -0.000005   0.000000  -0.000000  -0.000000   0.000000
    25  H   -0.000018  -0.001101   0.000034   0.000000  -0.000003   0.000000
    26  H   -0.000017  -0.002095  -0.019943   0.000656   0.379835  -0.019871
    27  H   -0.000015   0.000549  -0.023289   0.001172   0.382805  -0.022639
    28  H    0.000008   0.000013  -0.000727  -0.000884  -0.026411   0.381118
    29  H    0.000000  -0.000004   0.001125   0.000075  -0.022792   0.382914
    30  H    0.000029  -0.000002  -0.000562  -0.003629   0.000022  -0.000025
    31  H   -0.000157  -0.000000   0.000019   0.000416  -0.000002  -0.000017
    32  H   -0.000000  -0.000000   0.000001  -0.000017   0.000002  -0.000030
    33  H   -0.000000   0.000000  -0.000001  -0.000006  -0.000001  -0.000006
    34  H   -0.000000   0.000000  -0.000015   0.000043   0.000246  -0.004641
    35  H    0.000000  -0.000000  -0.000003  -0.000020  -0.000047   0.000156
    36  H   -0.000059  -0.000000  -0.000000  -0.000003  -0.000000   0.000000
    37  H    0.000013   0.000000   0.000000   0.000000   0.000000  -0.000000
    38  H   -0.000066  -0.000000  -0.000000  -0.000002   0.000000  -0.000000
              13         14         15         16         17         18
     1  C    0.000000  -0.000004  -0.000000  -0.000000  -0.000000  -0.001025
     2  C   -0.000000   0.000000   0.000000   0.000000   0.000000  -0.000004
     3  C   -0.000000  -0.000000  -0.000000   0.000000   0.000000  -0.000000
     4  C    0.000000   0.000000   0.000000   0.000000  -0.000000  -0.000002
     5  C   -0.000000   0.000016   0.000001  -0.000000   0.000000   0.000322
     6  C   -0.000002   0.000565   0.000012   0.000000   0.000000  -0.027271
     7  C    0.000355  -0.019122  -0.002566   0.000017  -0.000009   0.432473
     8  O   -0.000000   0.000241   0.000001   0.000000  -0.000000  -0.000000
     9  C   -0.003202  -0.020954  -0.001454   0.000010   0.000118   0.000293
    10  C   -0.017032   0.358509  -0.019106   0.000805   0.000811  -0.025798
    11  C   -0.021883  -0.004223   0.000102   0.000001  -0.001516  -0.000001
    12  C    0.333071  -0.031289   0.001059   0.001359  -0.034172  -0.000000
    13  N    6.509678   0.327176  -0.028687  -0.030490   0.333368  -0.000000
    14  C    0.327176   4.729399   0.364004  -0.034046  -0.043253  -0.001248
    15  C   -0.028687   0.364004   4.770076   0.363401  -0.039631  -0.000279
    16  C   -0.030490  -0.034046   0.363401   4.752544   0.365662   0.000002
    17  C    0.333368  -0.043253  -0.039631   0.365662   4.713544  -0.000000
    18  O   -0.000000  -0.001248  -0.000279   0.000002  -0.000000   7.855836
    19  C    0.000000  -0.000000  -0.000000   0.000000  -0.000000  -0.001647
    20  H   -0.000451  -0.020738   0.001101  -0.000018  -0.000009  -0.000361
    21  H    0.000068  -0.001292  -0.000428  -0.000011  -0.000029   0.000008
    22  H   -0.029041   0.382598  -0.025831   0.000005   0.001794   0.000151
    23  H    0.000000  -0.000000  -0.000000  -0.000000  -0.000000   0.000000
    24  H   -0.000000   0.000000   0.000000   0.000000  -0.000000  -0.000000
    25  H   -0.000000  -0.000000  -0.000000  -0.000000  -0.000000   0.000000
    26  H    0.000866   0.000026  -0.000000   0.000000   0.000007   0.000000
    27  H   -0.000412   0.000048   0.000002  -0.000005  -0.000325   0.000000
    28  H   -0.024391  -0.001075  -0.000020  -0.000034   0.001843   0.000000
    29  H   -0.018678   0.001569  -0.000031   0.000025  -0.003634   0.000000
    30  H    0.000277  -0.021234   0.381834  -0.022699  -0.000708  -0.000023
    31  H    0.000934  -0.018754   0.385044  -0.020252   0.001660  -0.000040
    32  H    0.001053   0.001473  -0.019486   0.384279  -0.019412   0.000000
    33  H   -0.000473  -0.000599  -0.021850   0.384348  -0.021469   0.000000
    34  H   -0.020713   0.000209  -0.000922  -0.023676   0.378699  -0.000000
    35  H   -0.022166   0.001761   0.001574  -0.019949   0.383514   0.000000
    36  H   -0.000000   0.000000  -0.000000   0.000000   0.000000  -0.000397
    37  H    0.000000  -0.000000   0.000000  -0.000000  -0.000000   0.000064
    38  H   -0.000000   0.000000   0.000000  -0.000000   0.000000  -0.000308
              19         20         21         22         23         24
     1  C    0.381277  -0.000016  -0.000015   0.000000  -0.024864   0.001312
     2  C   -0.030497   0.000000  -0.000001  -0.000000   0.395356  -0.024731
     3  C    0.000884   0.000000   0.000000   0.000000  -0.026828   0.393397
     4  C    0.000011  -0.000006   0.000103  -0.000000   0.001402  -0.025181
     5  C    0.000712   0.000068  -0.003331  -0.000001   0.000048   0.001375
     6  C   -0.023993   0.000034   0.000743  -0.000005   0.001250   0.000010
     7  C   -0.002558  -0.024729  -0.002597  -0.000752  -0.000014   0.000001
     8  O   -0.000001  -0.000804  -0.018909  -0.000005   0.000000  -0.000005
     9  C   -0.000000  -0.022703   0.378025   0.001229  -0.000000   0.000000
    10  C    0.000007   0.378454  -0.025932  -0.026722   0.000000  -0.000000
    11  C   -0.000000  -0.001865  -0.025387  -0.000065   0.000000  -0.000000
    12  C    0.000000  -0.000502   0.000932   0.001332  -0.000000   0.000000
    13  N    0.000000  -0.000451   0.000068  -0.029041   0.000000  -0.000000
    14  C   -0.000000  -0.020738  -0.001292   0.382598  -0.000000   0.000000
    15  C   -0.000000   0.001101  -0.000428  -0.025831  -0.000000   0.000000
    16  C    0.000000  -0.000018  -0.000011   0.000005  -0.000000   0.000000
    17  C   -0.000000  -0.000009  -0.000029   0.001794  -0.000000  -0.000000
    18  O   -0.001647  -0.000361   0.000008   0.000151   0.000000  -0.000000
    19  C    4.713407  -0.000000  -0.000000   0.000000  -0.004247  -0.000016
    20  H   -0.000000   0.622039   0.001881  -0.004098  -0.000000  -0.000000
    21  H   -0.000000   0.001881   0.647797  -0.000014  -0.000000   0.000000
    22  H    0.000000  -0.004098  -0.000014   0.640028   0.000000  -0.000000
    23  H   -0.004247  -0.000000  -0.000000   0.000000   0.602446  -0.003676
    24  H   -0.000016  -0.000000   0.000000  -0.000000  -0.003676   0.594279
    25  H    0.000000  -0.000000   0.000001  -0.000000  -0.000032  -0.003716
    26  H   -0.000000   0.000081   0.001571   0.000003   0.000000  -0.000000
    27  H    0.000000   0.000003  -0.007407   0.000003  -0.000000   0.000000
    28  H    0.000000  -0.000748  -0.000020   0.000298   0.000000   0.000000
    29  H   -0.000000  -0.000000  -0.000034  -0.000027   0.000000  -0.000000
    30  H    0.000000   0.000022  -0.000357   0.001807   0.000000  -0.000000
    31  H    0.000000  -0.000018   0.000008  -0.004855  -0.000000  -0.000000
    32  H   -0.000000   0.000000   0.000002  -0.000015  -0.000000  -0.000000
    33  H    0.000000   0.000000  -0.000000   0.000062   0.000000  -0.000000
    34  H   -0.000000   0.000001   0.000012  -0.000093  -0.000000   0.000000
    35  H    0.000000  -0.000000   0.000000  -0.000008   0.000000  -0.000000
    36  H    0.380799  -0.000000   0.000000   0.000000   0.000070   0.000000
    37  H    0.382853  -0.000000  -0.000000  -0.000000   0.000136  -0.000003
    38  H    0.380526   0.000000  -0.000000  -0.000000   0.000072   0.000000
              25         26         27         28         29         30
     1  C    0.000035   0.000000  -0.000000   0.000000   0.000000   0.000001
     2  C    0.001364   0.000000  -0.000000  -0.000000   0.000000  -0.000000
     3  C   -0.024614   0.000000  -0.000000  -0.000000   0.000000  -0.000000
     4  C    0.393468  -0.000006   0.000001   0.000000  -0.000000  -0.000000
     5  C   -0.025292   0.000106  -0.000040  -0.000001   0.000000   0.000000
     6  C    0.001227   0.000001  -0.000000  -0.000000   0.000000  -0.000028
     7  C   -0.000018  -0.000017  -0.000015   0.000008   0.000000   0.000029
     8  O   -0.001101  -0.002095   0.000549   0.000013  -0.000004  -0.000002
     9  C    0.000034  -0.019943  -0.023289  -0.000727   0.001125  -0.000562
    10  C    0.000000   0.000656   0.001172  -0.000884   0.000075  -0.003629
    11  C   -0.000003   0.379835   0.382805  -0.026411  -0.022792   0.000022
    12  C    0.000000  -0.019871  -0.022639   0.381118   0.382914  -0.000025
    13  N   -0.000000   0.000866  -0.000412  -0.024391  -0.018678   0.000277
    14  C   -0.000000   0.000026   0.000048  -0.001075   0.001569  -0.021234
    15  C   -0.000000  -0.000000   0.000002  -0.000020  -0.000031   0.381834
    16  C   -0.000000   0.000000  -0.000005  -0.000034   0.000025  -0.022699
    17  C   -0.000000   0.000007  -0.000325   0.001843  -0.003634  -0.000708
    18  O    0.000000   0.000000   0.000000   0.000000   0.000000  -0.000023
    19  C    0.000000  -0.000000   0.000000   0.000000  -0.000000   0.000000
    20  H   -0.000000   0.000081   0.000003  -0.000748  -0.000000   0.000022
    21  H    0.000001   0.001571  -0.007407  -0.000020  -0.000034  -0.000357
    22  H   -0.000000   0.000003   0.000003   0.000298  -0.000027   0.001807
    23  H   -0.000032   0.000000  -0.000000   0.000000   0.000000   0.000000
    24  H   -0.003716  -0.000000   0.000000   0.000000  -0.000000  -0.000000
    25  H    0.589248  -0.000001   0.000000   0.000000  -0.000000   0.000000
    26  H   -0.000001   0.614209  -0.022846  -0.003815  -0.000529  -0.000000
    27  H    0.000000  -0.022846   0.639526   0.001987  -0.003918   0.000004
    28  H    0.000000  -0.003815   0.001987   0.637333  -0.022902   0.000001
    29  H   -0.000000  -0.000529  -0.003918  -0.022902   0.621681   0.000001
    30  H    0.000000  -0.000000   0.000004   0.000001   0.000001   0.643235
    31  H   -0.000000   0.000000   0.000000   0.000000   0.000001  -0.023101
    32  H   -0.000000  -0.000000   0.000001   0.000001  -0.000001  -0.004236
    33  H   -0.000000   0.000000  -0.000000   0.000001  -0.000000   0.001924
    34  H    0.000000  -0.000025  -0.000501  -0.000022  -0.000366   0.000031
    35  H   -0.000000   0.000000   0.000016   0.000018   0.000234  -0.000006
    36  H   -0.000000   0.000000   0.000000  -0.000000  -0.000000  -0.000000
    37  H    0.000000   0.000000  -0.000000  -0.000000   0.000000   0.000000
    38  H   -0.000000  -0.000000   0.000000  -0.000000   0.000000  -0.000000
              31         32         33         34         35         36
     1  C   -0.000000   0.000000   0.000000  -0.000000   0.000000  -0.021142
     2  C    0.000000  -0.000000   0.000000   0.000000  -0.000000   0.000801
     3  C    0.000000  -0.000000   0.000000  -0.000000  -0.000000  -0.000023
     4  C    0.000000  -0.000000  -0.000000   0.000000  -0.000000   0.000002
     5  C   -0.000000   0.000000   0.000000  -0.000000  -0.000000   0.000002
     6  C    0.000003   0.000000  -0.000000   0.000000  -0.000000  -0.001980
     7  C   -0.000157  -0.000000  -0.000000  -0.000000   0.000000  -0.000059
     8  O   -0.000000  -0.000000   0.000000   0.000000  -0.000000  -0.000000
     9  C    0.000019   0.000001  -0.000001  -0.000015  -0.000003  -0.000000
    10  C    0.000416  -0.000017  -0.000006   0.000043  -0.000020  -0.000003
    11  C   -0.000002   0.000002  -0.000001   0.000246  -0.000047  -0.000000
    12  C   -0.000017  -0.000030  -0.000006  -0.004641   0.000156   0.000000
    13  N    0.000934   0.001053  -0.000473  -0.020713  -0.022166  -0.000000
    14  C   -0.018754   0.001473  -0.000599   0.000209   0.001761   0.000000
    15  C    0.385044  -0.019486  -0.021850  -0.000922   0.001574  -0.000000
    16  C   -0.020252   0.384279   0.384348  -0.023676  -0.019949   0.000000
    17  C    0.001660  -0.019412  -0.021469   0.378699   0.383514   0.000000
    18  O   -0.000040   0.000000   0.000000  -0.000000   0.000000  -0.000397
    19  C    0.000000  -0.000000   0.000000  -0.000000   0.000000   0.380799
    20  H   -0.000018   0.000000   0.000000   0.000001  -0.000000  -0.000000
    21  H    0.000008   0.000002  -0.000000   0.000012   0.000000   0.000000
    22  H   -0.004855  -0.000015   0.000062  -0.000093  -0.000008   0.000000
    23  H   -0.000000  -0.000000   0.000000  -0.000000   0.000000   0.000070
    24  H   -0.000000  -0.000000  -0.000000   0.000000  -0.000000   0.000000
    25  H   -0.000000  -0.000000  -0.000000   0.000000  -0.000000  -0.000000
    26  H    0.000000  -0.000000   0.000000  -0.000025   0.000000   0.000000
    27  H    0.000000   0.000001  -0.000000  -0.000501   0.000016   0.000000
    28  H    0.000000   0.000001   0.000001  -0.000022   0.000018  -0.000000
    29  H    0.000001  -0.000001  -0.000000  -0.000366   0.000234  -0.000000
    30  H   -0.023101  -0.004236   0.001924   0.000031  -0.000006  -0.000000
    31  H    0.615637  -0.000004  -0.004187  -0.000011  -0.000037   0.000000
    32  H   -0.000004   0.625670  -0.022752  -0.003675   0.000088  -0.000000
    33  H   -0.004187  -0.022752   0.625771   0.001903  -0.003967   0.000000
    34  H   -0.000011  -0.003675   0.001903   0.659426  -0.027170   0.000000
    35  H   -0.000037   0.000088  -0.003967  -0.027170   0.626009  -0.000000
    36  H    0.000000  -0.000000   0.000000   0.000000  -0.000000   0.607603
    37  H   -0.000000  -0.000000  -0.000000  -0.000000   0.000000  -0.022140
    38  H    0.000000   0.000000  -0.000000   0.000000  -0.000000  -0.018370
              37         38
     1  C   -0.020524  -0.021114
     2  C   -0.005722   0.000634
     3  C    0.000062  -0.000024
     4  C   -0.000000   0.000003
     5  C   -0.000016  -0.000002
     6  C    0.001127  -0.001682
     7  C    0.000013  -0.000066
     8  O    0.000000  -0.000000
     9  C    0.000000  -0.000000
    10  C    0.000000  -0.000002
    11  C    0.000000   0.000000
    12  C   -0.000000  -0.000000
    13  N    0.000000  -0.000000
    14  C   -0.000000   0.000000
    15  C    0.000000   0.000000
    16  C   -0.000000  -0.000000
    17  C   -0.000000   0.000000
    18  O    0.000064  -0.000308
    19  C    0.382853   0.380526
    20  H   -0.000000   0.000000
    21  H   -0.000000  -0.000000
    22  H   -0.000000  -0.000000
    23  H    0.000136   0.000072
    24  H   -0.000003   0.000000
    25  H    0.000000  -0.000000
    26  H    0.000000  -0.000000
    27  H   -0.000000   0.000000
    28  H   -0.000000  -0.000000
    29  H    0.000000   0.000000
    30  H    0.000000  -0.000000
    31  H   -0.000000   0.000000
    32  H   -0.000000   0.000000
    33  H   -0.000000  -0.000000
    34  H   -0.000000   0.000000
    35  H    0.000000  -0.000000
    36  H   -0.022140  -0.018370
    37  H    0.624992  -0.021856
    38  H   -0.021856   0.605965
 Mulliken charges:
               1
     1  C    0.034685
     2  C   -0.081043
     3  C   -0.046993
     4  C   -0.087054
     5  C    0.130317
     6  C   -0.067702
     7  C    0.183234
     8  O   -0.248628
     9  C    0.081691
    10  C   -0.076967
    11  C   -0.115998
    12  C   -0.015308
    13  N   -0.289223
    14  C    0.050240
    15  C   -0.107918
    16  C   -0.101278
    17  C   -0.016854
    18  O   -0.230746
    19  C   -0.177519
    20  H    0.073382
    21  H    0.054609
    22  H    0.062220
    23  H    0.058880
    24  H    0.066953
    25  H    0.069401
    26  H    0.071787
    27  H    0.055281
    28  H    0.058431
    29  H    0.065291
    30  H    0.047421
    31  H    0.067713
    32  H    0.057058
    33  H    0.061303
    34  H    0.041259
    35  H    0.060001
    36  H    0.074837
    37  H    0.061013
    38  H    0.076222
 Sum of Mulliken charges =  -0.00000
 Mulliken charges with hydrogens summed into heavy atoms:
               1
     1  C    0.034685
     2  C   -0.022163
     3  C    0.019961
     4  C   -0.017653
     5  C    0.130317
     6  C   -0.067702
     7  C    0.183234
     8  O   -0.248628
     9  C    0.136300
    10  C   -0.003585
    11  C    0.011070
    12  C    0.108414
    13  N   -0.289223
    14  C    0.112461
    15  C    0.007216
    16  C    0.017083
    17  C    0.084406
    18  O   -0.230746
    19  C    0.034553
 Electronic spatial extent (au):  <R**2>=           5065.5416
 Charge=              0.0000 electrons
 Dipole moment (field-independent basis, Debye):
    X=             -0.2317    Y=             -0.8413    Z=              1.3360  Tot=              1.5957
 Quadrupole moment (field-independent basis, Debye-Ang):
   XX=           -102.7971   YY=           -109.0895   ZZ=           -105.2981
   XY=             -1.8145   XZ=              2.8838   YZ=              1.3366
 Traceless Quadrupole moment (field-independent basis, Debye-Ang):
   XX=              2.9312   YY=             -3.3613   ZZ=              0.4301
   XY=             -1.8145   XZ=              2.8838   YZ=              1.3366
 Octapole moment (field-independent basis, Debye-Ang**2):
  XXX=            -32.2944  YYY=             -6.3205  ZZZ=             -6.9688  XYY=              4.0489
  XXY=             -3.2647  XXZ=             16.4336  XZZ=              2.0814  YZZ=              0.2784
  YYZ=              2.5259  XYZ=              2.7655
 Hexadecapole moment (field-independent basis, Debye-Ang**3):
 XXXX=          -4577.7254 YYYY=          -1465.3454 ZZZZ=           -333.8347 XXXY=            -10.7525
 XXXZ=             21.8874 YYYX=              3.8233 YYYZ=              2.1213 ZZZX=             10.8547
 ZZZY=             -7.2023 XXYY=           -970.9606 XXZZ=           -865.7919 YYZZ=           -297.6280
 XXYZ=             -8.1897 YYXZ=            -11.6921 ZZXY=             -4.7376
 N-N= 1.494766754434D+03 E-N=-4.884599226254D+03  KE= 8.035465903089D+02
 ******************************Gaussian NBO Version 3.1******************************
             N A T U R A L   A T O M I C   O R B I T A L   A N D
          N A T U R A L   B O N D   O R B I T A L   A N A L Y S I S
 ******************************Gaussian NBO Version 3.1******************************
       /RESON  / : Allow strongly delocalized NBO set
       /NLMO   / : Form Natural Localized Molecular Orbitals
       /NMR /    : Analyze NMR Sheilding Tensor 

 Analyzing the SCF density

 Job title: Title Card Required                                             

 Storage needed:     43472 in NPA,     53775 in NBO,    102144 in NLMO ( 104850000 available)
 GSVD:  LWork=      -13908 too small for GESVD, short by       66690 words or       66690 for optimal perf.


 NATURAL POPULATIONS:  Natural atomic orbital occupancies 
                                                          
   NAO  Atom  No  lang   Type(AO)    Occupancy      Energy
 ----------------------------------------------------------
     1    C    1  S      Cor( 1S)     1.99991     -10.98497
     2    C    1  S      Val( 2S)     1.08188      -0.20171
     3    C    1  px     Val( 2p)     0.95793       0.15545
     4    C    1  py     Val( 2p)     0.94972       0.14935
     5    C    1  pz     Val( 2p)     0.93388       0.02596

     6    C    2  S      Cor( 1S)     1.99995     -10.94767
     7    C    2  S      Val( 2S)     1.08039      -0.18671
     8    C    2  px     Val( 2p)     0.97599       0.14829
     9    C    2  py     Val( 2p)     0.97008       0.15271
    10    C    2  pz     Val( 2p)     1.04811      -0.00024

    11    C    3  S      Cor( 1S)     1.99994     -10.96550
    12    C    3  S      Val( 2S)     1.08165      -0.19157
    13    C    3  px     Val( 2p)     0.98156       0.13977
    14    C    3  py     Val( 2p)     0.98246       0.14384
    15    C    3  pz     Val( 2p)     0.95941       0.01386

    16    C    4  S      Cor( 1S)     1.99994     -10.94946
    17    C    4  S      Val( 2S)     1.07716      -0.18668
    18    C    4  px     Val( 2p)     0.97615       0.14529
    19    C    4  py     Val( 2p)     0.99041       0.14151
    20    C    4  pz     Val( 2p)     1.05328      -0.00480

    21    C    5  S      Cor( 1S)     1.99978     -11.03392
    22    C    5  S      Val( 2S)     1.06185      -0.21738
    23    C    5  px     Val( 2p)     0.86447       0.14034
    24    C    5  py     Val( 2p)     0.92991       0.15353
    25    C    5  pz     Val( 2p)     0.95629      -0.00631

    26    C    6  S      Cor( 1S)     1.99991     -10.96257
    27    C    6  S      Val( 2S)     1.08827      -0.21022
    28    C    6  px     Val( 2p)     0.97912       0.13326
    29    C    6  py     Val( 2p)     0.97012       0.13917
    30    C    6  pz     Val( 2p)     1.09219      -0.01480

    31    C    7  S      Cor( 1S)     1.99996     -11.05706
    32    C    7  S      Val( 2S)     1.07875      -0.24655
    33    C    7  px     Val( 2p)     0.93726       0.10268
    34    C    7  py     Val( 2p)     0.84807       0.17644
    35    C    7  pz     Val( 2p)     0.89520      -0.00202

    36    O    8  S      Cor( 1S)     1.99999     -20.20923
    37    O    8  S      Val( 2S)     1.73521      -1.02293
    38    O    8  px     Val( 2p)     1.11802      -0.04420
    39    O    8  py     Val( 2p)     1.53970      -0.24289
    40    O    8  pz     Val( 2p)     1.86152      -0.36931

    41    C    9  S      Cor( 1S)     1.99988     -11.06219
    42    C    9  S      Val( 2S)     1.08568      -0.24259
    43    C    9  px     Val( 2p)     0.85324       0.08150
    44    C    9  py     Val( 2p)     0.92346       0.07538
    45    C    9  pz     Val( 2p)     0.98566       0.06399

    46    C   10  S      Cor( 1S)     1.99996     -11.00680
    47    C   10  S      Val( 2S)     1.10261      -0.23538
    48    C   10  px     Val( 2p)     0.98895       0.06724
    49    C   10  py     Val( 2p)     0.99590       0.06210
    50    C   10  pz     Val( 2p)     1.00830       0.06467

    51    C   11  S      Cor( 1S)     1.99996     -10.98904
    52    C   11  S      Val( 2S)     1.09188      -0.21117
    53    C   11  px     Val( 2p)     0.98165       0.07824
    54    C   11  py     Val( 2p)     1.00289       0.07410
    55    C   11  pz     Val( 2p)     1.02103       0.07264

    56    C   12  S      Cor( 1S)     1.99994     -11.01631
    57    C   12  S      Val( 2S)     1.07151      -0.20000
    58    C   12  px     Val( 2p)     0.99600       0.07548
    59    C   12  py     Val( 2p)     0.88956       0.11079
    60    C   12  pz     Val( 2p)     1.00517       0.07079

    61    N   13  S      Cor( 1S)     1.99999     -15.24391
    62    N   13  S      Val( 2S)     1.43474      -0.59084
    63    N   13  px     Val( 2p)     1.28165      -0.05285
    64    N   13  py     Val( 2p)     1.10777       0.02280
    65    N   13  pz     Val( 2p)     1.45450      -0.11677

    66    C   14  S      Cor( 1S)     1.99993     -11.02491
    67    C   14  S      Val( 2S)     1.08418      -0.21438
    68    C   14  px     Val( 2p)     0.88115       0.12025
    69    C   14  py     Val( 2p)     0.93763       0.09016
    70    C   14  pz     Val( 2p)     0.99848       0.07786

    71    C   15  S      Cor( 1S)     1.99997     -10.98109
    72    C   15  S      Val( 2S)     1.08523      -0.19793
    73    C   15  px     Val( 2p)     0.98692       0.08466
    74    C   15  py     Val( 2p)     1.01857       0.08014
    75    C   15  pz     Val( 2p)     0.98590       0.08647

    76    C   16  S      Cor( 1S)     1.99998     -10.98062
    77    C   16  S      Val( 2S)     1.07746      -0.19065
    78    C   16  px     Val( 2p)     0.98420       0.08485
    79    C   16  py     Val( 2p)     0.98712       0.08654
    80    C   16  pz     Val( 2p)     1.01927       0.08691

    81    C   17  S      Cor( 1S)     1.99994     -11.00831
    82    C   17  S      Val( 2S)     1.07242      -0.19422
    83    C   17  px     Val( 2p)     0.99136       0.08242
    84    C   17  py     Val( 2p)     0.98909       0.07521
    85    C   17  pz     Val( 2p)     0.90922       0.10955

    86    O   18  S      Cor( 1S)     1.99999     -20.11372
    87    O   18  S      Val( 2S)     1.80529      -1.06209
    88    O   18  px     Val( 2p)     1.87393      -0.33892
    89    O   18  py     Val( 2p)     1.35563      -0.11715
    90    O   18  pz     Val( 2p)     1.20674      -0.12135

    91    C   19  S      Cor( 1S)     1.99997     -10.97634
    92    C   19  S      Val( 2S)     1.07806      -0.18681
    93    C   19  px     Val( 2p)     1.04048       0.07253
    94    C   19  py     Val( 2p)     0.98466       0.08396
    95    C   19  pz     Val( 2p)     1.04320       0.07191

    96    H   20  S      Val( 1S)     0.94751       0.05204

    97    H   21  S      Val( 1S)     0.98166       0.03150

    98    H   22  S      Val( 1S)     0.97085       0.07000

    99    H   23  S      Val( 1S)     0.96752       0.06761

   100    H   24  S      Val( 1S)     0.96160       0.06033

   101    H   25  S      Val( 1S)     0.95540       0.07254

   102    H   26  S      Val( 1S)     0.94880       0.06937

   103    H   27  S      Val( 1S)     0.96536       0.06026

   104    H   28  S      Val( 1S)     0.96892       0.06289

   105    H   29  S      Val( 1S)     0.96090       0.05963

   106    H   30  S      Val( 1S)     0.97256       0.05790

   107    H   31  S      Val( 1S)     0.95366       0.07655

   108    H   32  S      Val( 1S)     0.96266       0.06619

   109    H   33  S      Val( 1S)     0.95919       0.07230

   110    H   34  S      Val( 1S)     0.98573       0.05222

   111    H   35  S      Val( 1S)     0.96717       0.06691

   112    H   36  S      Val( 1S)     0.94154       0.08144

   113    H   37  S      Val( 1S)     0.95563       0.07340

   114    H   38  S      Val( 1S)     0.94009       0.08209


 Summary of Natural Population Analysis:                  
                                                          
                                       Natural Population 
                Natural  -----------------------------------------------
    Atom  No    Charge         Core      Valence    Rydberg      Total
 -----------------------------------------------------------------------
      C    1    0.07667      1.99991     3.92342    0.00000     5.92333
      C    2   -0.07452      1.99995     4.07457    0.00000     6.07452
      C    3   -0.00502      1.99994     4.00508    0.00000     6.00502
      C    4   -0.09694      1.99994     4.09700    0.00000     6.09694
      C    5    0.18770      1.99978     3.81252    0.00000     5.81230
      C    6   -0.12961      1.99991     4.12970    0.00000     6.12961
      C    7    0.24076      1.99996     3.75928    0.00000     5.75924
      O    8   -0.25444      1.99999     6.25445    0.00000     8.25444
      C    9    0.15208      1.99988     3.84804    0.00000     5.84792
      C   10   -0.09572      1.99996     4.09575    0.00000     6.09572
      C   11   -0.09741      1.99996     4.09745    0.00000     6.09741
      C   12    0.03783      1.99994     3.96223    0.00000     5.96217
      N   13   -0.27866      1.99999     5.27867    0.00000     7.27866
      C   14    0.09864      1.99993     3.90143    0.00000     5.90136
      C   15   -0.07659      1.99997     4.07662    0.00000     6.07659
      C   16   -0.06803      1.99998     4.06805    0.00000     6.06803
      C   17    0.03797      1.99994     3.96209    0.00000     5.96203
      O   18   -0.24158      1.99999     6.24159    0.00000     8.24158
      C   19   -0.14637      1.99997     4.14640    0.00000     6.14637
      H   20    0.05249      0.00000     0.94751    0.00000     0.94751
      H   21    0.01834      0.00000     0.98166    0.00000     0.98166
      H   22    0.02915      0.00000     0.97085    0.00000     0.97085
      H   23    0.03248      0.00000     0.96752    0.00000     0.96752
      H   24    0.03840      0.00000     0.96160    0.00000     0.96160
      H   25    0.04460      0.00000     0.95540    0.00000     0.95540
      H   26    0.05120      0.00000     0.94880    0.00000     0.94880
      H   27    0.03464      0.00000     0.96536    0.00000     0.96536
      H   28    0.03108      0.00000     0.96892    0.00000     0.96892
      H   29    0.03910      0.00000     0.96090    0.00000     0.96090
      H   30    0.02744      0.00000     0.97256    0.00000     0.97256
      H   31    0.04634      0.00000     0.95366    0.00000     0.95366
      H   32    0.03734      0.00000     0.96266    0.00000     0.96266
      H   33    0.04081      0.00000     0.95919    0.00000     0.95919
      H   34    0.01427      0.00000     0.98573    0.00000     0.98573
      H   35    0.03283      0.00000     0.96717    0.00000     0.96717
      H   36    0.05846      0.00000     0.94154    0.00000     0.94154
      H   37    0.04437      0.00000     0.95563    0.00000     0.95563
      H   38    0.05991      0.00000     0.94009    0.00000     0.94009
 =======================================================================
   * Total *   -0.00000     37.99889   100.00111    0.00000   138.00000

                                 Natural Population      
 --------------------------------------------------------
   Core                      37.99889 ( 99.9971% of  38)
   Valence                  100.00111 (100.0011% of 100)
   Natural Minimal Basis    138.00000 (100.0000% of 138)
   Natural Rydberg Basis      0.00000 (  0.0000% of 138)
 --------------------------------------------------------

    Atom  No          Natural Electron Configuration
 ----------------------------------------------------------------------------
      C    1      [core]2S( 1.08)2p( 2.84)
      C    2      [core]2S( 1.08)2p( 2.99)
      C    3      [core]2S( 1.08)2p( 2.92)
      C    4      [core]2S( 1.08)2p( 3.02)
      C    5      [core]2S( 1.06)2p( 2.75)
      C    6      [core]2S( 1.09)2p( 3.04)
      C    7      [core]2S( 1.08)2p( 2.68)
      O    8      [core]2S( 1.74)2p( 4.52)
      C    9      [core]2S( 1.09)2p( 2.76)
      C   10      [core]2S( 1.10)2p( 2.99)
      C   11      [core]2S( 1.09)2p( 3.01)
      C   12      [core]2S( 1.07)2p( 2.89)
      N   13      [core]2S( 1.43)2p( 3.84)
      C   14      [core]2S( 1.08)2p( 2.82)
      C   15      [core]2S( 1.09)2p( 2.99)
      C   16      [core]2S( 1.08)2p( 2.99)
      C   17      [core]2S( 1.07)2p( 2.89)
      O   18      [core]2S( 1.81)2p( 4.44)
      C   19      [core]2S( 1.08)2p( 3.07)
      H   20            1S( 0.95)
      H   21            1S( 0.98)
      H   22            1S( 0.97)
      H   23            1S( 0.97)
      H   24            1S( 0.96)
      H   25            1S( 0.96)
      H   26            1S( 0.95)
      H   27            1S( 0.97)
      H   28            1S( 0.97)
      H   29            1S( 0.96)
      H   30            1S( 0.97)
      H   31            1S( 0.95)
      H   32            1S( 0.96)
      H   33            1S( 0.96)
      H   34            1S( 0.99)
      H   35            1S( 0.97)
      H   36            1S( 0.94)
      H   37            1S( 0.96)
      H   38            1S( 0.94)


 NATURAL BOND ORBITAL ANALYSIS:

                       Occupancies       Lewis Structure    Low   High
           Occ.    -------------------  -----------------   occ   occ
  Cycle   Thresh.   Lewis   Non-Lewis     CR  BD  3C  LP    (L)   (NL)   Dev
 =============================================================================
   1(1)    1.90   134.42754   3.57246     19  43   0   7     3      3    0.45
   2(2)    1.90   134.42754   3.57246     19  43   0   7     3      3    0.45
   3(1)    1.80   134.35044   3.64956     19  42   0   8     3      3    0.45
   4(2)    1.80   134.35044   3.64956     19  42   0   8     3      3    0.45
   5(1)    1.70   134.35044   3.64956     19  42   0   8     3      3    0.45
   6(2)    1.70   134.35044   3.64956     19  42   0   8     3      3    0.45
   7(1)    1.60   135.52123   2.47877     19  44   0   6     1      3    0.43
   8(2)    1.60   136.13290   1.86710     19  45   0   5     0      3    0.42
   9(3)    1.60   136.08892   1.91108     19  45   0   5     0      3    0.45
  10(4)    1.60   136.13290   1.86710     19  45   0   5     0      3    0.42
  11(1)    1.50   136.13290   1.86710     19  45   0   5     0      3    0.42
  12(2)    1.50   136.08892   1.91108     19  45   0   5     0      3    0.45
  13(3)    1.50   136.13290   1.86710     19  45   0   5     0      3    0.42
  14(1)    1.60   136.13290   1.86710     19  45   0   5     0      3    0.42
 -----------------------------------------------------------------------------

 Structure accepted: RESONANCE keyword permits strongly delocalized structure

 --------------------------------------------------------
   Core                     37.99889 ( 99.997% of  38)
   Valence Lewis            98.13400 ( 98.134% of 100)
  ==================       ============================
   Total Lewis             136.13290 ( 98.647% of 138)
  -----------------------------------------------------
   Valence non-Lewis         1.86710 (  1.353% of 138)
   Rydberg non-Lewis         0.00000 (  0.000% of 138)
  ==================       ============================
   Total non-Lewis           1.86710 (  1.353% of 138)
 --------------------------------------------------------


       (Occupancy)   Bond orbital/ Coefficients/ Hybrids
 ---------------------------------------------------------------------------------
     1. (1.98536) BD ( 1) C   1 - C   2  
                ( 50.02%)   0.7072* C   1 s( 33.72%)p 1.97( 66.28%)
                                            0.0000  0.5807 -0.6715 -0.4204  0.1875
                ( 49.98%)   0.7070* C   2 s( 34.48%)p 1.90( 65.52%)
                                            0.0001  0.5872  0.6649  0.4272 -0.1750
     2. (1.66026) BD ( 2) C   1 - C   2  
                ( 45.52%)   0.6747* C   1 s(  0.00%)p 1.00(100.00%)
                                            0.0000  0.0001  0.1923  0.1270  0.9731
                ( 54.48%)   0.7381* C   2 s(  0.00%)p 1.00(100.00%)
                                           -0.0000 -0.0030  0.1839  0.1176  0.9759
     3. (1.98117) BD ( 1) C   1 - C   6  
                ( 49.49%)   0.7035* C   1 s( 34.70%)p 1.88( 65.30%)
                                            0.0001  0.5891  0.7136 -0.3676 -0.0931
                ( 50.51%)   0.7107* C   6 s( 35.63%)p 1.81( 64.37%)
                                            0.0000  0.5969 -0.6854  0.4087  0.0831
     4. (1.98730) BD ( 1) C   1 - C  19  
                ( 50.15%)   0.7082* C   1 s( 31.57%)p 2.17( 68.43%)
                                           -0.0000  0.5619 -0.0541  0.8198 -0.0963
                ( 49.85%)   0.7060* C  19 s( 25.58%)p 2.91( 74.42%)
                                            0.0001  0.5057  0.0809 -0.8533  0.0980
     5. (1.98962) BD ( 1) C   2 - C   3  
                ( 49.53%)   0.7038* C   2 s( 33.89%)p 1.95( 66.11%)
                                            0.0001  0.5822  0.0291 -0.8071  0.0936
                ( 50.47%)   0.7104* C   3 s( 34.23%)p 1.92( 65.77%)
                                            0.0000  0.5851 -0.0422  0.8050 -0.0885
     6. (1.98898) BD ( 1) C   2 - H  23  
                ( 51.65%)   0.7187* C   2 s( 31.63%)p 2.16( 68.37%)
                                           -0.0001  0.5624 -0.7234  0.3902  0.0910
                ( 48.35%)   0.6954* H  23 s(100.00%)
                                            1.0000
[...]
    3      -0.4844       -0.5570       0.0726        -1.1456       0.6612
    4       0.1437       -1.0686       1.2123        -0.8361       0.9798
    8       0.3816       -0.2067       0.5883        -0.6570       1.0385
   13       1.0268       -0.0472       1.0740        -0.4361       1.4629
   15     -10.7081      -10.8390       0.1308       -11.4374       0.7292
   16     -10.3457      -10.7433       0.3976       -11.0594       0.7137
   17    -117.7497     -127.6000       9.8504      -127.1567       9.4070
   18     -25.3336      -50.5500      25.2164       -50.3963      25.0628
   20      -1.0741       -1.2524       0.1783        -1.1882       0.1142
   23      -0.2875       -0.4299       0.1424        -1.2518       0.9642
   37      -0.2164       -1.0026       0.7862        -0.9688       0.7524
   43      -0.3795       -1.6780       1.2985        -1.3428       0.9633
   45      -0.3929       -1.8639       1.4710        -1.3615       0.9686
   63     271.9305       -0.0056     271.9361        -0.0055     271.9361
   68     -34.6878      -69.8190      35.1312       -69.7170      35.0291
   69    -416.1737     -453.2072      37.0336      -455.8151      39.6414
 Sum     -344.3508     -730.8706     386.5198      -734.7753     390.4245

 Contributions to Isotropic shielding for atom   19 (   218.0441 ppm):
                         Standard Origin              Atomic Origin
 NLMO      Total    Paramagnetic  Diamagnetic   Paramagnetic  Diamagnetic
    1      -1.9482       -1.3363      -0.6119        -2.4500       0.5018
    2      -0.9057       -0.7281      -0.1776        -2.5693       1.6636
    3      -1.0255       -1.4943       0.4688        -1.3314       0.3059
    4       3.7832      -10.9992      14.7824        -3.1708       6.9540
    6      -0.6546       -1.5592       0.9046        -1.6798       1.0252
    8       0.8349       -0.3121       1.1471        -0.3490       1.1839
   15      -0.3826        0.0741      -0.4568        -1.2518       0.8692
   17      -0.4524       -0.2892      -0.1632        -1.1852       0.7328
   18       0.2597        0.2713      -0.0116        -1.2281       1.4877
   43       6.9444       -6.5415      13.4859        -4.5075      11.4518
   44       3.9508        5.1930      -1.2422        -7.2317      11.1825
   45       7.2031       -3.5044      10.7075        -4.2217      11.4248
   64     200.0789       -0.0034     200.0823         0.0033     200.0756
 Sum      217.6859      -21.2293     238.9151       -31.1728     248.8587

 Contributions to Isotropic shielding for atom   20 (    31.2217 ppm):
                         Standard Origin              Atomic Origin
 NLMO      Total    Paramagnetic  Diamagnetic   Paramagnetic  Diamagnetic
   13       0.1070       -0.5397       0.6467        -1.1925       1.2995
   16       2.0158        1.6449       0.3709         1.1419       0.8739
   18       0.0925       -0.1603       0.2528        -0.9214       1.0140
   19       0.0270       -0.3581       0.3851        -1.1306       1.1576
   20       1.2961        0.8660       0.4300         0.6585       0.6376
   23       1.1402        1.4412      -0.3010         0.2100       0.9302
   24      25.6857        0.0225      25.6632         0.3237      25.3621
   28       0.1820       -0.8304       1.0125        -0.7633       0.9454
   29      -0.2528       -1.4492       1.1964        -0.9184       0.6656
   34       0.1088       -0.7126       0.8214        -0.8962       1.0050
 Sum       30.4024       -0.0756      30.4781        -3.4884      33.8908

 Contributions to Isotropic shielding for atom   21 (    31.3947 ppm):
                         Standard Origin              Atomic Origin
 NLMO      Total    Paramagnetic  Diamagnetic   Paramagnetic  Diamagnetic
   13       0.1233       -0.6519       0.7752        -1.1971       1.3204
   19       0.8982        0.2150       0.6832        -0.5048       1.4030
   20       1.0602       -0.3253       1.3855         0.2746       0.7857
   21       0.5168        0.6032      -0.0864        -0.6616       1.1784
   22      26.2614        0.4189      25.8424         0.6717      25.5896
   27      -0.0679       -1.5499       1.4820        -1.2455       1.1775
 Sum       28.7920       -1.2899      30.0819        -2.6627      31.4547

 Contributions to Isotropic shielding for atom   22 (    30.2963 ppm):
                         Standard Origin              Atomic Origin
 NLMO      Total    Paramagnetic  Diamagnetic   Paramagnetic  Diamagnetic
   17      -0.4039       -0.5425       0.1386        -1.2545       0.8506
   18       0.1986       -0.2533       0.4519        -1.2851       1.4837
   23       1.1167       -0.0785       1.1952         0.0535       1.0632
   24       0.1147        0.2230      -0.1083        -0.9340       1.0487
   31       0.6195        1.5998      -0.9803        -0.7748       1.3943
   33       0.6900        1.0735      -0.3835        -0.3220       1.0120
   34      26.1403        0.0023      26.1380         0.6186      25.5217
   37       0.0181       -0.5791       0.5972        -1.0224       1.0406
   38       0.1294       -0.9171       1.0466        -0.7036       0.8331
   40       0.0064       -1.0099       1.0163        -0.7656       0.7720
 Sum       28.6298       -0.4820      29.1118        -6.3898      35.0197

 Contributions to Isotropic shielding for atom   23 (    25.9012 ppm):
                         Standard Origin              Atomic Origin
 NLMO      Total    Paramagnetic  Diamagnetic   Paramagnetic  Diamagnetic
    1      -1.4252       -2.8250       1.3998        -1.9992       0.5740
    2       0.8088        1.5406      -0.7319        -2.5630       3.3717
    4      -0.6994        0.7653      -1.4647        -1.7796       1.0802
    5      -2.0739       -1.2710      -0.8028        -2.7895       0.7157
    6      27.0844        0.9571      26.1273         1.5528      25.5317
    9      -0.0838       -0.1558       0.0721        -1.1892       1.1054
   13       0.5487        0.8670      -0.3183        -0.7059       1.2547
   44      -0.1258       -1.3199       1.1941        -0.9053       0.7795
 Sum       24.0339       -1.4416      25.4755       -10.3790      34.4129

 Contributions to Isotropic shielding for atom   24 (    25.2723 ppm):
                         Standard Origin              Atomic Origin
 NLMO      Total    Paramagnetic  Diamagnetic   Paramagnetic  Diamagnetic
    2       1.2330        0.7967       0.4363         0.1662       1.0668
    5      -2.0991       -1.8876      -0.2116        -2.8617       0.7626
    6      -0.1027        0.0568      -0.1595        -1.2254       1.1227
    7      -1.8908       -2.6532       0.7624        -2.6220       0.7312
    8       0.5064        1.3514      -0.8450        -2.3149       2.8212
    9      26.9102        1.1107      25.7994         1.6122      25.2980
   11      -0.1125        0.6465      -0.7590        -1.2207       1.1083
   13       0.4655        0.7678      -0.3024        -0.9077       1.3732
 Sum       24.9100        0.1892      24.7208        -9.3739      34.2839

 Contributions to Isotropic shielding for atom   25 (    25.6991 ppm):
                         Standard Origin              Atomic Origin
 NLMO      Total    Paramagnetic  Diamagnetic   Paramagnetic  Diamagnetic
    2       1.2396       -0.4359       1.6755         0.0098       1.2297
    7      -1.8127       -0.9651      -0.8475        -2.4934       0.6807
    8       0.2264        0.0564       0.1701        -3.1783       3.4047
    9      -0.0513       -1.0005       0.9492        -1.1488       1.0975
   10      -0.9113       -2.5579       1.6466        -1.4668       0.5555
   11      26.5198        1.0753      25.4445         1.3118      25.2080
   14      -0.5008        0.4413      -0.9421        -2.1122       1.6114
   65      -0.2057       -0.4518       0.2461         0.7993      -1.0050
 Sum       24.5040       -3.8382      28.3423        -8.2786      32.7827

 Contributions to Isotropic shielding for atom   26 (    31.5802 ppm):
                         Standard Origin              Atomic Origin
 NLMO      Total    Paramagnetic  Diamagnetic   Paramagnetic  Diamagnetic
   19      -0.0773        0.5422      -0.6195        -1.9280       1.8507
   21       1.5687        0.0271       1.5416         0.7382       0.8305
   25       0.9500        1.7545      -0.8046        -0.0944       1.0444
   26      25.8926        0.0816      25.8110         0.4839      25.4087
   27       2.0258        2.0015       0.0243         0.2210       1.8048
   29       0.1439       -0.5735       0.7174        -0.9203       1.0642
   65      -0.4400       -0.2952      -0.1448         0.6190      -1.0589
 Sum       30.0637        3.5382      26.5255        -0.8807      30.9443

 Contributions to Isotropic shielding for atom   27 (    31.7479 ppm):
                         Standard Origin              Atomic Origin
 NLMO      Total    Paramagnetic  Diamagnetic   Paramagnetic  Diamagnetic
   21       1.4626       -0.1602       1.6229         0.5161       0.9465
   22      -0.2378        0.3052      -0.5430        -1.4264       1.1886
   25       0.9414        1.6854      -0.7440        -0.0858       1.0272
   26       1.9868        1.9384       0.0484         0.0640       1.9227
   27      26.2925       -0.0838      26.3763         0.4313      25.8612
 Sum       30.4455        3.6850      26.7605        -0.5007      30.9462

 Contributions to Isotropic shielding for atom   28 (    31.5419 ppm):
                         Standard Origin              Atomic Origin
 NLMO      Total    Paramagnetic  Diamagnetic   Paramagnetic  Diamagnetic
   20      -0.1673        0.2207      -0.3880        -1.0017       0.8344
   23      -0.0822        0.2467      -0.3289        -1.0333       0.9511
   25       1.3197       -0.4370       1.7567         0.4143       0.9054
   26       0.0568        0.0549       0.0019        -1.0171       1.0739
   28       1.2569       -0.0448       1.3017        -0.0873       1.3442
   29      26.3321        0.3471      25.9850         0.6240      25.7081
   30       1.4846        2.1892      -0.7046        -0.4425       1.9271
 Sum       30.2006        2.5769      27.6238        -2.5438      32.7444

 Contributions to Isotropic shielding for atom   29 (    31.6966 ppm):
                         Standard Origin              Atomic Origin
 NLMO      Total    Paramagnetic  Diamagnetic   Paramagnetic  Diamagnetic
   27       0.1148        0.5455      -0.4307        -0.9467       1.0615
   28       0.5662        1.4548      -0.8886        -0.5711       1.1373
   29       1.8109        1.9423      -0.1315        -0.0346       1.8455
   30      26.3107        0.0615      26.2492         0.7787      25.5320
   32      -0.3105        0.3574      -0.6680        -1.4205       1.1099
 Sum       28.4920        4.3616      24.1305        -2.1942      30.6862

 Contributions to Isotropic shielding for atom   30 (    33.0412 ppm):
                         Standard Origin              Atomic Origin
 NLMO      Total    Paramagnetic  Diamagnetic   Paramagnetic  Diamagnetic
   18      -0.1135       -0.2408       0.1274        -1.1137       1.0002
   33       1.6769       -0.8378       2.5147         1.0812       0.5957
   35       0.7918        1.4102      -0.6184        -0.0295       0.8213
   36      26.3662        0.3235      26.0427         0.3437      26.0225
   37       2.1030        0.6069       1.4961         0.2878       1.8152
   38       0.2748       -1.2029       1.4777        -0.3946       0.6694
   39       0.1010       -1.4074       1.5084        -0.8921       0.9931
 Sum       31.2002       -1.3485      32.5487        -0.7172      31.9174

 Contributions to Isotropic shielding for atom   31 (    32.0597 ppm):
                         Standard Origin              Atomic Origin
 NLMO      Total    Paramagnetic  Diamagnetic   Paramagnetic  Diamagnetic
   18      -0.0812       -0.3346       0.2535        -1.1866       1.1054
   33       1.5567        0.0991       1.4576         0.8648       0.6919
   34       0.0170       -0.0579       0.0749        -1.0616       1.0786
   35       0.4450        2.3025      -1.8575        -0.4206       0.8656
   36       2.1894        0.2392       1.9502         0.4432       1.7462
   37      25.9890        0.1039      25.8851         0.4667      25.5223
   40       0.1614       -1.1456       1.3069        -0.9175       1.0788
 Sum       30.2774        1.2066      29.0707        -1.8115      32.0889

 Contributions to Isotropic shielding for atom   32 (    32.4353 ppm):
                         Standard Origin              Atomic Origin
 NLMO      Total    Paramagnetic  Diamagnetic   Paramagnetic  Diamagnetic
   31      -0.1429        0.1518      -0.2947        -1.0702       0.9272
   35       1.4938       -0.8781       2.3718         0.7501       0.7437
   36       0.0342        0.7850      -0.7508        -1.0544       1.0886
   39      26.2870        0.1272      26.1598         0.4854      25.8015
   40       1.8908        2.7697      -0.8789         0.1278       1.7630
   41       0.0719       -0.1043       0.1762        -0.9914       1.0633
 Sum       29.6347        2.8514      26.7833        -1.7526      31.3873

 Contributions to Isotropic shielding for atom   33 (    31.8554 ppm):
                         Standard Origin              Atomic Origin
 NLMO      Total    Paramagnetic  Diamagnetic   Paramagnetic  Diamagnetic
   31      -0.1361        0.2612      -0.3973        -1.2077       1.0716
   35       1.4207       -0.7989       2.2197         0.6748       0.7459
   37       0.0685        0.8033      -0.7348        -0.9414       1.0099
   39       1.8761        2.6808      -0.8047         0.0994       1.7766
   40      26.1725       -0.0119      26.1844         0.5023      25.6702
   42       0.0687        0.0400       0.0286        -0.9671       1.0357
 Sum       29.4704        2.9746      26.4958        -1.8396      31.3100

 Contributions to Isotropic shielding for atom   34 (    32.2927 ppm):
                         Standard Origin              Atomic Origin
 NLMO      Total    Paramagnetic  Diamagnetic   Paramagnetic  Diamagnetic
   28      -0.2802        0.2489      -0.5291        -1.1563       0.8761
   32       1.5956       -1.6813       3.2770         1.0163       0.5793
   33      -0.1973        0.2045      -0.4018        -1.0614       0.8642
   38       0.9315       -0.2912       1.2227         0.0804       0.8511
   41      26.6961        0.5768      26.1193         0.6616      26.0345
   42       1.6312        2.1532      -0.5220        -0.2193       1.8505
 Sum       30.3770        1.2109      29.1660        -0.6786      31.0556

 Contributions to Isotropic shielding for atom   35 (    31.6280 ppm):
                         Standard Origin              Atomic Origin
 NLMO      Total    Paramagnetic  Diamagnetic   Paramagnetic  Diamagnetic
   32       1.0206        0.7546       0.2660        -0.1330       1.1536
   33      -0.1550        0.2678      -0.4228        -1.0557       0.9007
   38       0.3320        1.8753      -1.5433        -0.5342       0.8662
   40       0.1138        0.2042      -0.0903        -0.9446       1.0584
   41       1.6574        1.2859       0.3715        -0.0385       1.6959
   42      26.3911        0.1323      26.2588         0.8047      25.5864
 Sum       29.3600        4.5201      24.8399        -1.9013      31.2613

 Contributions to Isotropic shielding for atom   36 (    30.9647 ppm):
                         Standard Origin              Atomic Origin
 NLMO      Total    Paramagnetic  Diamagnetic   Paramagnetic  Diamagnetic
    2      -0.7563       -0.5620      -0.1942        -1.6516       0.8954
    4       1.8814       -0.9564       2.8379         1.0100       0.8714
    8       0.5421       -0.2408       0.7829        -0.5478       1.0899
   15      -0.2970        0.1695      -0.4665        -1.2139       0.9168
   18       0.1480        0.1356       0.0124        -1.2062       1.3542
   43      25.7170        0.2893      25.4276         0.3456      25.3714
   44       1.8061        2.2675      -0.4614        -0.0821       1.8882
   45       2.2019        0.3738       1.8280         0.3755       1.8264
 Sum       31.2431        1.4765      29.7667        -2.9705      34.2136

 Contributions to Isotropic shielding for atom   37 (    30.9847 ppm):
                         Standard Origin              Atomic Origin
 NLMO      Total    Paramagnetic  Diamagnetic   Paramagnetic  Diamagnetic
    1      -0.9982        0.2012      -1.1994        -1.9182       0.9200
    2      -0.7281        0.0724      -0.8005        -2.3460       1.6179
    4       1.0255        0.8592       0.1663         0.2676       0.7579
    6      -0.0120       -1.4186       1.4066        -0.9401       0.9281
   18       0.0730        0.1157      -0.0427        -0.9401       1.0131
   43       2.0519        1.9399       0.1120         0.0667       1.9851
   44      26.2689       -0.1516      26.4205         0.5274      25.7415
   45       2.1085        2.4804      -0.3719         0.1415       1.9670
 Sum       29.7896        4.0986      25.6910        -5.1411      34.9307

 Contributions to Isotropic shielding for atom   38 (    30.9798 ppm):
                         Standard Origin              Atomic Origin
 NLMO      Total    Paramagnetic  Diamagnetic   Paramagnetic  Diamagnetic
    2      -0.8584       -0.4368      -0.4217        -1.7915       0.9331
    4       1.8270       -0.4290       2.2561         0.9555       0.8715
    8       0.5814       -0.1733       0.7548        -0.5011       1.0825
   15      -0.3110        0.1820      -0.4930        -1.2277       0.9167
   18       0.0924        0.2817      -0.1893        -1.2014       1.2938
   43       2.2387        0.2460       1.9927         0.4384       1.8003
   44       1.7735        2.6701      -0.8966        -0.0971       1.8706
   45      25.6972        0.2179      25.4793         0.3510      25.3462
 Sum       31.0408        2.5585      28.4823        -3.0739      34.1147
 
 1\1\GINC-GNOSIE-MM\SP\RHF\STO-3G\C16H19N1O2\MBENIDD\18-May-2026\0\\# n
 mr=giao hf/sto-3g pop=nbo\\Title Card Required\\0,1\C,0,0.,0.,0.\C,0,1
 .4074,0.,-0.0089\C,0,2.1227,1.2031,0.\C,0,1.4425,2.4152,0.0248\C,0,0.0
 48,2.4316,0.051\C,0,-0.6827,1.2336,0.0168\C,0,-2.1622,1.3387,-0.0416\O
 ,0,-0.5166,3.6811,0.0855\C,0,-1.8301,3.6799,0.6588\C,0,-2.7382,2.736,-
 0.1104\C,0,-2.3531,5.1234,0.642\C,0,-3.7723,5.2441,0.0834\N,0,-4.6864,
 4.2088,0.5522\C,0,-4.1809,2.8227,0.4089\C,0,-4.4432,2.1638,1.7703\C,0,
 -5.5396,3.0159,2.378\C,0,-5.1466,4.4072,1.9293\O,0,-2.8769,0.342,-0.09
 64\C,0,-0.7014,-1.3311,-0.027\H,0,-2.7233,3.0022,-1.1778\H,0,-1.7303,3
 .3698,1.709\H,0,-4.8318,2.327,-0.3243\H,0,1.9602,-0.9319,-0.025\H,0,3.
 2097,1.1884,-0.0135\H,0,1.9977,3.3498,0.0331\H,0,-1.6871,5.7755,0.0631
 \H,0,-2.3299,5.5133,1.6675\H,0,-3.7271,5.1921,-1.0122\H,0,-4.1755,6.24
 ,0.3053\H,0,-3.5584,2.1929,2.4158\H,0,-4.7607,1.1208,1.6746\H,0,-5.583
 7,2.9217,3.4668\H,0,-6.516,2.7348,1.9649\H,0,-4.3502,4.7849,2.5813\H,0
 ,-5.9904,5.1023,1.9751\H,0,-1.3533,-1.44,0.8453\H,0,0.0131,-2.1612,0.0
 064\H,0,-1.2789,-1.4419,-0.95\\Version=EM64L-G16RevB.01\State=1-A\HF=-
 811.0533057\RMSD=7.077e-09\Dipole=0.3675053,0.2249952,0.4565511\Quadru
 pole=-1.3880807,0.0417659,1.3463148,-2.5251296,-1.9740087,0.8994249\PG
 =C01 [X(C16H19N1O2)]\\@


 IT IS THE GODS' CUSTOM TO BRING LOW ALL THINGS OF SURPASSING GREATNESS.
     -- HERODOTUS
 IT IS THE LOFTY PINE THAT BY THE STORM IS OFTENER TOSSED;
 TOWERS FALL WITH HEAVIER CRASH WHICH HIGHER SOAR.
     -- HORACE
 THE BIGGER THEY COME, THE HARDER THEY FALL.
     -- BOB FITZSIMONS HEAVYWEIGHT CHAMPION, 1897-1899
 Job cpu time:       0 days  0 hours  3 minutes 39.4 seconds.
 Elapsed time:       0 days  0 hours  1 minutes 58.4 seconds.
 File lengths (MBytes):  RWF=     14 Int=      0 D2E=      0 Chk=      2 Scr=      1
 Normal termination of Gaussian 16 at Mon May 18 12:07:40 2026.
