 Entering Gaussian System, Link 0=g16
 Input=1_elaeocarpine_c_2.gjf
 Output=1_elaeocarpine_c_2.log
 Initial command:
 /opt/gaussian/g16/l1.exe "/home/mbenidd/Bureau/Elaeocarpines/HF_NMR/Elaeocarpine/1_elaeocarpine_c_2/Gau-12600.inp" -scrdir="/home/mbenidd/Bureau/Elaeocarpines/HF_NMR/Elaeocarpine/1_elaeocarpine_c_2/"
 Entering Link 1 = /opt/gaussian/g16/l1.exe PID=     12602.
  
 Copyright (c) 1988-2017, Gaussian, Inc.  All Rights Reserved.
  
 This is part of the Gaussian(R) 16 program.  It is based on
 the Gaussian(R) 09 system (copyright 2009, Gaussian, Inc.),
 the Gaussian(R) 03 system (copyright 2003, Gaussian, Inc.),
 the Gaussian(R) 98 system (copyright 1998, Gaussian, Inc.),
 the Gaussian(R) 94 system (copyright 1995, Gaussian, Inc.),
 the Gaussian 92(TM) system (copyright 1992, Gaussian, Inc.),
 the Gaussian 90(TM) system (copyright 1990, Gaussian, Inc.),
 the Gaussian 88(TM) system (copyright 1988, Gaussian, Inc.),
 the Gaussian 86(TM) system (copyright 1986, Carnegie Mellon
 University), and the Gaussian 82(TM) system (copyright 1983,
 Carnegie Mellon University). Gaussian is a federally registered
 trademark of Gaussian, Inc.
  
 This software contains proprietary and confidential information,
 including trade secrets, belonging to Gaussian, Inc.
  
 This software is provided under written license and may be
 used, copied, transmitted, or stored only in accord with that
 written license.
  
 The following legend is applicable only to US Government
 contracts under FAR:
  
                    RESTRICTED RIGHTS LEGEND
  
 Use, reproduction and disclosure by the US Government is
 subject to restrictions as set forth in subparagraphs (a)
 and (c) of the Commercial Computer Software - Restricted
 Rights clause in FAR 52.227-19.
  
 Gaussian, Inc.
 340 Quinnipiac St., Bldg. 40, Wallingford CT 06492
  
  
 ---------------------------------------------------------------
 Warning -- This program may not be used in any manner that
 competes with the business of Gaussian, Inc. or will provide
 assistance to any competitor of Gaussian, Inc.  The licensee
 of this program is prohibited from giving any competitor of
 Gaussian, Inc. access to this program.  By using this program,
 the user acknowledges that Gaussian, Inc. is engaged in the
 business of creating and licensing software in the field of
 computational chemistry and represents and warrants to the
 licensee that it is not a competitor of Gaussian, Inc. and that
 it will not use this program in any manner prohibited above.
 ---------------------------------------------------------------
  

 Cite this work as:
 Gaussian 16, Revision B.01,
 M. J. Frisch, G. W. Trucks, H. B. Schlegel, G. E. Scuseria, 
 M. A. Robb, J. R. Cheeseman, G. Scalmani, V. Barone, 
 G. A. Petersson, H. Nakatsuji, X. Li, M. Caricato, A. V. Marenich, 
 J. Bloino, B. G. Janesko, R. Gomperts, B. Mennucci, H. P. Hratchian, 
 J. V. Ortiz, A. F. Izmaylov, J. L. Sonnenberg, D. Williams-Young, 
 F. Ding, F. Lipparini, F. Egidi, J. Goings, B. Peng, A. Petrone, 
 T. Henderson, D. Ranasinghe, V. G. Zakrzewski, J. Gao, N. Rega, 
 G. Zheng, W. Liang, M. Hada, M. Ehara, K. Toyota, R. Fukuda, 
 J. Hasegawa, M. Ishida, T. Nakajima, Y. Honda, O. Kitao, H. Nakai, 
 T. Vreven, K. Throssell, J. A. Montgomery, Jr., J. E. Peralta, 
 F. Ogliaro, M. J. Bearpark, J. J. Heyd, E. N. Brothers, K. N. Kudin, 
 V. N. Staroverov, T. A. Keith, R. Kobayashi, J. Normand, 
 K. Raghavachari, A. P. Rendell, J. C. Burant, S. S. Iyengar, 
 J. Tomasi, M. Cossi, J. M. Millam, M. Klene, C. Adamo, R. Cammi, 
 J. W. Ochterski, R. L. Martin, K. Morokuma, O. Farkas, 
 J. B. Foresman, and D. J. Fox, Gaussian, Inc., Wallingford CT, 2016.
 
 ******************************************
 Gaussian 16:  EM64L-G16RevB.01 20-Dec-2017
                30-Apr-2026 
 ******************************************
 %nprocshared=4
 Will use up to    4 processors via shared memory.
 ----------------------------
 # nmr=giao hf/sto-3g pop=nbo
 ----------------------------
 1/38=1,172=1/1;
 2/12=2,17=6,18=5,40=1/2;
 3/6=3,11=9,25=1,30=1/1,2,3,8;
 4//1;
 5/5=2,38=5/2;
 8/6=1,10=90,11=11/1;
 10/13=100,45=16/2;
 6/7=2,8=2,9=2,10=2,28=1,40=1,64=1/1,7;
 99/9=1/99;
 -------------------
 Title Card Required
 -------------------
 Symbolic Z-matrix:
 Charge =  0 Multiplicity = 1
 C                     0.        0.        0. 
 C                     1.4071    0.        0. 
 C                     2.1273    1.1942    0. 
 C                     1.4526    2.4101   -0.0114 
 C                     0.0583    2.4333   -0.0327 
 C                    -0.6753    1.2369   -0.0111 
 C                    -2.1543    1.3514    0.0296 
 O                    -0.5016    3.6854   -0.0539 
 C                    -1.8547    3.6891   -0.5248 
 C                    -2.7046    2.7376    0.3045 
 C                    -2.377     5.117    -0.407 
 C                    -3.8436    5.1859   -0.8095 
 N                    -4.6973    4.2384   -0.1042 
 C                    -4.192     2.8549   -0.078 
 C                    -5.1139    2.2041    0.962 
 C                    -5.6437    3.3453    1.8269 
 C                    -4.9971    4.6046    1.2768 
 O                    -2.8779    0.3712   -0.1148 
 C                    -0.7104   -1.326     0.0214 
 H                    -2.562     2.9289    1.3773 
 H                    -1.8526    3.403    -1.5875 
 H                    -4.3599    2.3883   -1.0572 
 H                     1.9558   -0.9407    0.0081 
 H                     3.2144    1.1746    0.0078 
 H                     2.0123    3.342    -0.0143 
 H                    -2.2331    5.489     0.6152 
 H                    -1.7819    5.7811   -1.0459 
 H                    -4.2197    6.2075   -0.6768 
 H                    -3.9234    4.9799   -1.8846 
 H                    -4.6107    1.451     1.5766 
 H                    -5.957     1.7097    0.4638 
 H                    -6.7354    3.3985    1.7416 
 H                    -5.3976    3.1983    2.8835 
 H                    -4.0955    4.8406    1.8536 
 H                    -5.6772    5.4602    1.3366 
 H                    -1.3539   -1.4037    0.9034 
 H                    -0.0011   -2.1597    0.0711 
 H                    -1.2992   -1.4601   -0.8913 
 
                          Input orientation:                          
 ---------------------------------------------------------------------
 Center     Atomic      Atomic             Coordinates (Angstroms)
 Number     Number       Type             X           Y           Z
 ---------------------------------------------------------------------
      1          6           0        0.000000    0.000000    0.000000
      2          6           0        1.407100    0.000000    0.000000
      3          6           0        2.127300    1.194200    0.000000
      4          6           0        1.452600    2.410100   -0.011400
      5          6           0        0.058300    2.433300   -0.032700
      6          6           0       -0.675300    1.236900   -0.011100
      7          6           0       -2.154300    1.351400    0.029600
      8          8           0       -0.501600    3.685400   -0.053900
      9          6           0       -1.854700    3.689100   -0.524800
     10          6           0       -2.704600    2.737600    0.304500
     11          6           0       -2.377000    5.117000   -0.407000
     12          6           0       -3.843600    5.185900   -0.809500
     13          7           0       -4.697300    4.238400   -0.104200
     14          6           0       -4.192000    2.854900   -0.078000
     15          6           0       -5.113900    2.204100    0.962000
     16          6           0       -5.643700    3.345300    1.826900
     17          6           0       -4.997100    4.604600    1.276800
     18          8           0       -2.877900    0.371200   -0.114800
     19          6           0       -0.710400   -1.326000    0.021400
     20          1           0       -2.562000    2.928900    1.377300
     21          1           0       -1.852600    3.403000   -1.587500
     22          1           0       -4.359900    2.388300   -1.057200
     23          1           0        1.955800   -0.940700    0.008100
     24          1           0        3.214400    1.174600    0.007800
     25          1           0        2.012300    3.342000   -0.014300
     26          1           0       -2.233100    5.489000    0.615200
     27          1           0       -1.781900    5.781100   -1.045900
     28          1           0       -4.219700    6.207500   -0.676800
     29          1           0       -3.923400    4.979900   -1.884600
     30          1           0       -4.610700    1.451000    1.576600
     31          1           0       -5.957000    1.709700    0.463800
     32          1           0       -6.735400    3.398500    1.741600
     33          1           0       -5.397600    3.198300    2.883500
     34          1           0       -4.095500    4.840600    1.853600
     35          1           0       -5.677200    5.460200    1.336600
     36          1           0       -1.353900   -1.403700    0.903400
     37          1           0       -0.001100   -2.159700    0.071100
     38          1           0       -1.299200   -1.460100   -0.891300
 ---------------------------------------------------------------------
                    Distance matrix (angstroms):
                    1          2          3          4          5
     1  C    0.000000
     2  C    1.407100   0.000000
     3  C    2.439574   1.394561   0.000000
     4  C    2.814029   2.410556   1.390598   0.000000
     5  C    2.434218   2.782316   2.411887   1.394656   0.000000
     6  C    1.409282   2.422072   2.802947   2.429888   1.403570
     7  C    2.543259   3.809295   4.284587   3.759289   2.463734
     8  O    3.719769   4.150688   3.622168   2.333901   1.371748
     9  C    4.162305   4.952193   4.728241   3.582967   2.340676
    10  C    3.860315   4.949066   5.081541   4.182028   2.799985
    11  C    5.656807   6.377206   5.986880   4.706341   3.643217
    12  C    6.505545   7.424197   7.227766   6.032559   4.837876
    13  N    6.327679   7.432267   7.473498   6.416585   5.087163
    14  C    5.072416   6.285416   6.534337   5.662490   4.271399
    15  C    5.651148   6.950320   7.374301   6.641451   5.271965
    16  C    6.810282   8.015134   8.267602   7.389954   6.066520
    17  C    6.914012   7.990390   8.001133   6.933536   5.655652
    18  O    2.904010   4.302580   5.073710   4.787592   3.588909
    19  C    1.504461   2.498508   3.795314   4.317185   3.837468
    20  H    4.127863   5.121442   5.186104   4.279562   3.016569
    21  H    4.187206   4.972546   4.820639   3.793981   2.647501
    22  H    5.082359   6.330872   6.680368   5.905872   4.535650
    23  H    2.170285   1.089061   2.141793   3.388429   3.871182
    24  H    3.422297   2.155477   1.087305   2.151922   3.398078
    25  H    3.901092   3.396386   2.150924   1.087065   2.155038
    26  H    5.957712   6.615032   6.151168   4.843205   3.873963
    27  H    6.139234   6.684665   6.116813   4.784958   3.952300
    28  H    7.536377   8.405474   8.116381   6.858425   5.741144
    29  H    6.613939   7.534278   7.382020   6.246129   5.076282
    30  H    5.084252   6.387878   6.924757   6.340759   5.035307
    31  H    6.214824   7.574177   8.113985   7.457784   6.078976
    32  H    7.742647   8.993513   9.297288   8.431684   7.087603
    33  H    6.904910   8.052803   8.303921   7.478432   6.233482
    34  H    6.606085   7.559487   7.446832   6.337742   5.158224
    35  H    7.989423   9.043649   8.994191   7.871103   6.628202
    36  H    2.149314   3.226395   4.436662   4.822693   4.194420
    37  H    2.160870   2.579222   3.972881   4.796157   4.594557
    38  H    2.148075   3.201619   4.425000   4.829604   4.211717
                    6          7          8          9         10
     6  C    0.000000
     7  C    1.483984   0.000000
     8  O    2.455027   2.861109   0.000000
     9  C    2.769144   2.421149   1.432704   0.000000
    10  C    2.543573   1.516559   2.424868   1.521651   0.000000
    11  C    4.255314   3.797362   2.385641   1.524983   2.505015
    12  C    5.125443   4.273314   3.740507   2.505432   2.921043
    13  N    5.019378   3.849613   4.232285   2.925579   2.527902
    14  C    3.871638   2.534623   3.782772   2.521605   1.540268
    15  C    4.645812   3.218027   4.949708   3.877910   2.553753
    16  C    5.701631   4.402481   5.485824   4.472719   3.365310
    17  C    5.628325   4.496702   4.777574   3.736118   3.112332
    18  O    2.368889   1.226882   4.078533   3.496212   2.409501
    19  C    2.563346   3.041938   5.016313   5.172909   4.535397
    20  H    2.889664   2.114479   2.620281   2.167063   1.099013
    21  H    2.926271   2.629657   2.063221   1.100540   2.179065
    22  H    3.999541   2.668514   4.192321   2.872552   2.171694
    23  H    3.415406   4.706071   5.238651   6.019879   5.944499
    24  H    3.890245   5.371655   4.485151   5.683498   6.129075
    25  H    3.413891   4.617897   2.537555   3.915964   4.766139
    26  H    4.571580   4.179578   2.588196   2.163892   2.808745
    27  H    4.790107   4.573579   2.648621   2.157153   3.455119
    28  H    6.141074   5.324151   4.535776   3.458131   3.911353
    29  H    5.298132   4.467649   4.090954   2.791906   3.362371
    30  H    4.249000   2.904657   4.953360   4.125592   2.628078
    31  H    5.324042   3.844143   5.825186   4.660925   3.414683
    32  H    6.668529   5.301702   6.493566   5.389086   4.330057
    33  H    5.875876   4.698381   5.730306   4.940601   3.757091
    34  H    5.306744   4.389732   4.229558   3.464668   2.959210
    35  H    6.683679   5.567882   5.645373   4.605769   4.161025
    36  H    2.875687   2.999124   5.248026   5.312925   4.396980
    37  H    3.463841   4.118958   5.867821   6.164365   5.598833
    38  H    2.904791   3.079575   5.273858   5.192029   4.585387
                   11         12         13         14         15
    11  C    0.000000
    12  C    1.522389   0.000000
    13  N    2.499484   1.457398   0.000000
    14  C    2.918829   2.467800   1.473121   0.000000
    15  C    4.224899   3.693644   2.334248   1.534614   0.000000
    16  C    4.335961   3.684939   2.328615   2.444702   1.526787
    17  C    3.156368   2.453797   1.459844   2.354808   2.423869
    18  O    4.781098   4.959488   4.273823   2.810156   3.085242
    19  C    6.668833   7.274076   6.846437   5.441631   5.721638
    20  H    2.829440   3.393912   2.910178   2.186384   2.685145
    21  H    2.146246   2.783540   3.315176   2.837569   4.309686
    22  H    3.435179   2.855606   2.108297   1.097606   2.163242
    23  H    7.459302   8.475656   8.432048   7.225610   7.796175
    24  H    6.854074   8.159281   8.484952   7.595099   8.445765
    25  H    4.750873   6.190628   6.769811   6.223718   7.282218
    26  H    1.097262   2.171486   2.855489   3.355041   4.382904
    27  H    1.096980   2.158878   3.430201   3.912551   5.284772
    28  H    2.158130   1.096689   2.105547   3.405768   4.417292
    29  H    2.143234   1.097563   2.078116   2.802066   4.150360
    30  H    4.729021   4.497932   3.256100   2.209965   1.094579
    31  H    5.018405   4.262830   2.881630   2.172615   1.097020
    32  H    5.154161   4.250343   2.875111   3.174166   2.159544
    33  H    4.861360   4.472552   3.240151   3.215879   2.181990
    34  H    2.853060   2.697181   2.134898   2.771894   2.963650
    35  H    3.748233   2.836031   2.128122   3.315796   3.325631
    36  H    6.729295   7.249515   6.635275   5.210915   5.211262
    37  H    7.669670   8.336552   7.938558   6.536978   6.780647
    38  H    6.682398   7.116880   6.681281   5.258229   5.604732
                   16         17         18         19         20
    16  C    0.000000
    17  C    1.518729   0.000000
    18  O    4.501680   4.934494   0.000000
    19  C    7.029817   7.424543   2.756283   0.000000
    20  H    3.142038   2.957665   2.977916   4.834363   0.000000
    21  H    5.102342   4.419948   3.523052   5.124121   3.085135
    22  H    3.298791   3.281092   2.674534   5.317730   3.074326
    23  H    8.912364   8.983472   5.010074   2.693929   6.104017
    24  H    9.299839   8.989104   6.146267   4.653734   6.190307
    25  H    7.874285   7.238286   5.722745   5.404127   4.799106
    26  H    4.206645   2.976504   5.209659   7.008241   2.691298
    27  H    5.394405   4.137221   5.597784   7.266231   3.823022
    28  H    4.060601   2.643897   6.014871   8.340041   4.209099
    29  H    4.405290   3.359782   5.046323   7.329432   4.086564
    30  H    2.172121   3.191297   2.651301   5.034155   2.533985
    31  H    2.152065   3.156394   3.406937   6.077664   3.721150
    32  H    1.096319   2.166196   5.243193   7.847332   4.215508
    33  H    1.094796   2.172456   4.830237   7.115529   3.222087
    34  H    2.152570   1.096028   5.033159   7.269306   2.496614
    35  H    2.171248   1.094607   5.986699   8.511837   4.014176
    36  H    6.465929   7.036477   2.551387   1.094556   4.522777
    37  H    8.076311   8.495262   3.836143   1.095734   5.844503
    38  H    7.025323   7.426689   2.539470   1.094390   5.099464
                   21         22         23         24         25
    21  H    0.000000
    22  H    2.756336   0.000000
    23  H    5.993128   7.218391   0.000000
    24  H    5.760663   7.744502   2.461416   0.000000
    25  H    4.173264   6.527030   4.283131   2.478539   0.000000
    26  H    3.057460   4.115160   7.697824   6.975546   4.798885
    27  H    2.440018   4.261139   7.762983   6.877001   4.627025
    28  H    3.781238   3.840657   9.471148   9.003588   6.891141
    29  H    2.619751   2.755270   8.555747   8.307206   6.435315
    30  H    4.629141   2.806837   7.162356   7.985595   7.069015
    31  H    4.890930   2.307524   8.357313   9.198307   8.148787
    32  H    5.909709   3.807464   9.867656  10.341678   8.922367
    33  H    5.709533   4.154761   8.914692   9.302234   7.957670
    34  H    4.351834   3.815290   8.570154   8.383387   6.560493
    35  H    5.235456   4.111220  10.049832   9.959550   8.089506
    36  H    5.436695   5.221039   3.459775   5.321569   5.890258
    37  H    6.092835   6.399727   2.306380   4.632602   5.859162
    38  H    4.943752   4.919918   3.416683   5.303076   5.898756
                   26         27         28         29         30
    26  H    0.000000
    27  H    1.745897   0.000000
    28  H    2.476305   2.502183   0.000000
    29  H    3.060277   2.435439   1.747449   0.000000
    30  H    4.783588   5.799085   5.277782   4.990533   0.000000
    31  H    5.307868   6.023865   4.954734   4.510512   1.765722
    32  H    5.090154   6.163124   4.479719   4.853607   2.886924
    33  H    4.517361   5.931638   4.808167   5.299259   2.319538
    34  H    2.328646   3.826798   2.878674   3.744751   3.439702
    35  H    3.518959   4.577406   2.595485   3.699004   4.155563
    36  H    6.954521   7.456829   8.284939   7.424663   4.382837
    37  H    7.986268   8.214332   9.400318   8.377535   6.045833
    38  H    7.171590   7.258917   8.207766   7.024719   5.052828
                   31         32         33         34         35
    31  H    0.000000
    32  H    2.256263   0.000000
    33  H    2.895480   1.770233   0.000000
    34  H    3.898623   3.010194   2.335232   0.000000
    35  H    3.860870   2.352535   2.754499   1.775660   0.000000
    36  H    5.574499   7.261146   6.438223   6.885531   8.123528
    37  H    7.113312   8.890161   8.108019   8.303350   9.585535
    38  H    5.794741   7.751802   7.262692   7.419743   8.486517
                   36         37         38
    36  H    0.000000
    37  H    1.759070   0.000000
    38  H    1.796419   1.760885   0.000000
 Stoichiometry    C16H19NO2
 Framework group  C1[X(C16H19NO2)]
 Deg. of freedom   108
 Full point group                 C1      NOp   1
 Largest Abelian subgroup         C1      NOp   1
 Largest concise Abelian subgroup C1      NOp   1
                         Standard orientation:                         
 ---------------------------------------------------------------------
 Center     Atomic      Atomic             Coordinates (Angstroms)
 Number     Number       Type             X           Y           Z
 ---------------------------------------------------------------------
      1          6           0       -3.039709    0.936841   -0.053397
      2          6           0       -4.220196    0.213192    0.197031
      3          6           0       -4.183042   -1.154614    0.466340
      4          6           0       -2.964983   -1.825390    0.478820
      5          6           0       -1.784647   -1.131850    0.212604
      6          6           0       -1.809842    0.248892   -0.038249
      7          6           0       -0.503965    0.921810   -0.248181
      8          8           0       -0.644319   -1.893809    0.240220
      9          6           0        0.451474   -1.292721   -0.460188
     10          6           0        0.726348    0.100571    0.086256
     11          6           0        1.666888   -2.193782   -0.269313
     12          6           0        2.898929   -1.575459   -0.915395
     13          7           0        3.168243   -0.207700   -0.490292
     14          6           0        2.003591    0.693060   -0.538270
     15          6           0        2.518879    1.913261    0.236733
     16          6           0        3.652255    1.401000    1.122242
     17          6           0        3.737782   -0.090450    0.848746
     18          8           0       -0.436022    2.084509   -0.633870
     19          6           0       -3.153990    2.413856   -0.315632
     20          1           0        0.803721    0.076366    1.182275
     21          1           0        0.202679   -1.261787   -1.531791
     22          1           0        1.807813    0.978440   -1.579888
     23          1           0       -5.185036    0.718273    0.191426
     24          1           0       -5.104906   -1.695803    0.665119
     25          1           0       -2.934305   -2.892141    0.685732
     26          1           0        1.835772   -2.379433    0.798861
     27          1           0        1.468155   -3.178915   -0.709066
     28          1           0        3.774786   -2.209457   -0.731961
     29          1           0        2.760773   -1.571721   -2.004222
     30          1           0        1.746258    2.403160    0.837698
     31          1           0        2.916895    2.662770   -0.458444
     32          1           0        4.589213    1.901399    0.850904
     33          1           0        3.459682    1.602966    2.180875
     34          1           0        3.158815   -0.638919    1.600581
     35          1           0        4.773121   -0.443655    0.887240
     36          1           0       -2.578355    2.981448    0.422296
     37          1           0       -4.192444    2.755076   -0.239369
     38          1           0       -2.812235    2.650937   -1.327899
 ---------------------------------------------------------------------
 Rotational constants (GHZ):           0.7918576           0.2696503           0.2157995
 Standard basis: STO-3G (5D, 7F)
 There are   114 symmetry adapted cartesian basis functions of A   symmetry.
 There are   114 symmetry adapted basis functions of A   symmetry.
   114 basis functions,   342 primitive gaussians,   114 cartesian basis functions
    69 alpha electrons       69 beta electrons
       nuclear repulsion energy      1491.4069446941 Hartrees.
 NAtoms=   38 NActive=   38 NUniq=   38 SFac= 1.00D+00 NAtFMM=   60 NAOKFM=F Big=F
 Integral buffers will be    131072 words long.
 Raffenetti 1 integral format.
 Two-electron integral symmetry is turned on.
 One-electron integrals computed using PRISM.
 NBasis=   114 RedAO= T EigKep=  1.74D-01  NBF=   114
 NBsUse=   114 1.00D-06 EigRej= -1.00D+00 NBFU=   114
 ExpMin= 1.69D-01 ExpMax= 1.31D+02 ExpMxC= 1.31D+02 IAcc=3 IRadAn=         5 AccDes= 0.00D+00
 Harris functional with IExCor=  205 and IRadAn=       5 diagonalized for initial guess.
 HarFok:  IExCor=  205 AccDes= 0.00D+00 IRadAn=         5 IDoV= 1 UseB2=F ITyADJ=14
 ICtDFT=  3500011 ScaDFX=  1.000000  1.000000  1.000000  1.000000
 FoFCou: FMM=F IPFlag=           0 FMFlag=      100000 FMFlg1=           0
         NFxFlg=           0 DoJE=T BraDBF=F KetDBF=T FulRan=T
         wScrn=  0.000000 ICntrl=       500 IOpCl=  0 I1Cent=   200000004 NGrid=           0
         NMat0=    1 NMatS0=      1 NMatT0=    0 NMatD0=    1 NMtDS0=    0 NMtDT0=    0
 Petite list used in FoFCou.
 Requested convergence on RMS density matrix=1.00D-08 within 128 cycles.
 Requested convergence on MAX density matrix=1.00D-06.
 Requested convergence on             energy=1.00D-06.
 No special actions if energy rises.
 Integral accuracy reduced to 1.0D-05 until final iterations.
 Initial convergence to 1.0D-05 achieved.  Increase integral accuracy.
 SCF Done:  E(RHF) =  -811.060862940     A.U. after   17 cycles
            NFock= 17  Conv=0.77D-08     -V/T= 2.0093
 Range of M.O.s used for correlation:     1   114
 NBasis=   114 NAE=    69 NBE=    69 NFC=     0 NFV=     0
 NROrb=    114 NOA=    69 NOB=    69 NVA=    45 NVB=    45
          Differentiating once with respect to magnetic field using GIAOs.
          Electric field/nuclear overlap derivatives assumed to be zero.
 FoFCou: FMM=F IPFlag=           0 FMFlag=      100000 FMFlg1=           0
         NFxFlg=           0 DoJE=F BraDBF=F KetDBF=T FulRan=T
         wScrn=  0.000000 ICntrl=      6100 IOpCl=  0 I1Cent=           7 NGrid=          38
         NMat0=    1 NMatS0=      1 NMatT0=    0 NMatD0=    1 NMtDS0=    0 NMtDT0=    0
 Symmetry not used in FoFCou.
 FoFJK:  IHMeth= 1 ICntrl=    6127 DoSepK=F KAlg= 0 I1Cent=           0 FoldK=F
 IRaf=         1 NMat=       1 IRICut=       1 DoRegI=T DoRafI=F ISym2E= 0 IDoP0=0 IntGTp=1.
          There are     3 degrees of freedom in the 1st order CPHF.  IDoFFX=0 NUNeed=     3.
      3 vectors produced by pass  0 Test12= 1.04D-13 3.33D-08 XBig12= 2.75D+01 1.56D+00.
 AX will form     3 AO Fock derivatives at one time.
      3 vectors produced by pass  1 Test12= 1.04D-13 3.33D-08 XBig12= 1.72D-01 2.33D-01.
      3 vectors produced by pass  2 Test12= 1.04D-13 3.33D-08 XBig12= 3.40D-03 2.10D-02.
      3 vectors produced by pass  3 Test12= 1.04D-13 3.33D-08 XBig12= 1.03D-04 2.03D-03.
      3 vectors produced by pass  4 Test12= 1.04D-13 3.33D-08 XBig12= 1.50D-06 1.72D-04.
      3 vectors produced by pass  5 Test12= 1.04D-13 3.33D-08 XBig12= 1.83D-08 1.95D-05.
      3 vectors produced by pass  6 Test12= 1.04D-13 3.33D-08 XBig12= 3.24D-10 3.45D-06.
      3 vectors produced by pass  7 Test12= 1.04D-13 3.33D-08 XBig12= 4.78D-12 2.45D-07.
      2 vectors produced by pass  8 Test12= 1.04D-13 3.33D-08 XBig12= 8.33D-14 4.88D-08.
 InvSVY:  IOpt=1 It=  1 EMax= 4.44D-16
 Solved reduced A of dimension    26 with     3 vectors.
 Calculating GIAO nuclear magnetic shielding tensors.
 SCF GIAO Magnetic shielding tensor (ppm):
      1  C    Isotropic =   114.1081   Anisotropy =   169.1022
   XX=    81.7679   YX=    12.8526   ZX=    11.9116
   XY=    16.7024   YY=    40.7772   ZY=    32.5883
   XZ=    10.4442   YZ=    32.8021   ZZ=   219.7792
   Eigenvalues:    31.7544    83.7270   226.8429
      2  C    Isotropic =   123.8987   Anisotropy =   142.9892
   XX=    54.7523   YX=    38.6894   ZX=     8.1303
   XY=    34.2409   YY=   102.3334   ZY=    19.7574
   XZ=    10.4376   YZ=    18.3185   ZZ=   214.6104
   Eigenvalues:    34.9985   117.4728   219.2248
      3  C    Isotropic =   117.2539   Anisotropy =   168.4653
   XX=    45.4807   YX=   -32.1227   ZX=    24.0656
   XY=   -33.7511   YY=    85.7339   ZY=    32.1666
   XZ=    26.2283   YZ=    32.3272   ZZ=   220.5472
   Eigenvalues:    19.8182   102.3794   229.5641
      4  C    Isotropic =   131.5727   Anisotropy =   145.4841
   XX=   118.1637   YX=     2.8808   ZX=    11.4794
   XY=     0.4233   YY=    55.2331   ZY=    34.6758
   XZ=    13.0055   YZ=    28.8192   ZZ=   221.3214
   Eigenvalues:    49.3662   116.7898   228.5621
      5  C    Isotropic =   104.3877   Anisotropy =   132.5959
   XX=    56.5302   YX=    19.4933   ZX=    12.8070
   XY=    10.5144   YY=    68.0741   ZY=    21.4721
   XZ=    10.5820   YZ=    15.7794   ZZ=   188.5588
   Eigenvalues:    46.2200    74.1582   192.7849
      6  C    Isotropic =   130.8032   Anisotropy =   146.9453
   XX=    76.4395   YX=   -16.2465   ZX=    15.5018
   XY=   -15.4865   YY=    94.6744   ZY=    27.0013
   XZ=    12.0669   YZ=    33.2899   ZZ=   221.2957
   Eigenvalues:    62.3876   101.2553   228.7667
      7  C    Isotropic =    90.2178   Anisotropy =   136.8464
   XX=   -42.7003   YX=     5.8152   ZX=    -9.1647
   XY=     6.2325   YY=   138.9126   ZY=    17.5088
   XZ=    -7.8918   YZ=    16.6063   ZZ=   174.4411
   Eigenvalues:   -43.2820   132.4867   181.4487
      8  O    Isotropic =   335.0996   Anisotropy =    87.5577
   XX=   294.3233   YX=   -34.5626   ZX=    32.3168
   XY=   -46.9029   YY=   323.9436   ZY=    27.1995
   XZ=    17.0644   YZ=   -14.7485   ZZ=   387.0319
   Eigenvalues:   261.2577   350.5697   393.4714
      9  C    Isotropic =   185.5251   Anisotropy =    49.0200
   XX=   203.5224   YX=     9.6974   ZX=   -17.2443
   XY=    12.2415   YY=   178.4390   ZY=    -7.1507
   XZ=   -22.2327   YZ=    -9.7663   ZZ=   174.6139
   Eigenvalues:   163.9812   174.3889   218.2051
     10  C    Isotropic =   211.2864   Anisotropy =     6.5377
   XX=   212.8183   YX=     4.2018   ZX=    -2.1200
   XY=    -3.5354   YY=   207.0260   ZY=     4.3035
   XZ=    -1.3883   YZ=     0.4205   ZZ=   214.0148
   Eigenvalues:   206.1932   212.0211   215.6449
     11  C    Isotropic =   222.4991   Anisotropy =    16.5155
   XX=   229.7531   YX=    -6.7634   ZX=    -3.1862
   XY=    -5.7001   YY=   222.1088   ZY=    -1.8796
   XZ=    -1.3999   YZ=     2.6377   ZZ=   215.6353
   Eigenvalues:   215.1891   218.7987   233.5094
     12  C    Isotropic =   205.1524   Anisotropy =    35.5594
   XX=   198.1067   YX=     6.2393   ZX=    -3.7519
   XY=     6.4655   YY=   222.5004   ZY=    15.3178
   XZ=    -4.5196   YZ=    12.3755   ZZ=   194.8500
   Eigenvalues:   185.8116   200.7869   228.8586
     13  N    Isotropic =   298.9916   Anisotropy =    51.4252
   XX=   291.2981   YX=   -33.8444   ZX=    33.6357
   XY=   -23.8246   YY=   308.2264   ZY=    13.5873
   XZ=    40.6871   YZ=    29.6326   ZZ=   297.4502
   Eigenvalues:   238.5914   325.1083   333.2750
     14  C    Isotropic =   194.3919   Anisotropy =    38.8209
   XX=   203.5232   YX=   -16.0515   ZX=    10.0359
   XY=   -14.6695   YY=   205.8104   ZY=     0.0520
   XZ=     1.1675   YZ=     2.0453   ZZ=   173.8421
   Eigenvalues:   172.2811   190.6222   220.2725
     15  C    Isotropic =   212.3445   Anisotropy =    28.0472
   XX=   211.8886   YX=     2.3324   ZX=    16.0293
   XY=    -1.0515   YY=   221.8032   ZY=    10.5559
   XZ=    18.4581   YZ=     9.4804   ZZ=   203.3417
   Eigenvalues:   188.1204   217.8704   231.0426
     16  C    Isotropic =   216.2827   Anisotropy =    20.3663
   XX=   213.3663   YX=    -6.0479   ZX=    16.6616
   XY=    -6.4807   YY=   226.8602   ZY=     5.3244
   XZ=    15.3386   YZ=     3.0606   ZZ=   208.6216
   Eigenvalues:   193.2428   225.7450   229.8602
     17  C    Isotropic =   200.2948   Anisotropy =    46.4278
   XX=   189.3728   YX=     0.3629   ZX=    20.0978
   XY=    -2.2439   YY=   198.3977   ZY=    13.7712
   XZ=    28.5413   YZ=    10.2635   ZZ=   213.1140
   Eigenvalues:   172.0973   197.5405   231.2467
     18  O    Isotropic =  -340.8807   Anisotropy =  1253.7160
   XX=  -388.2827   YX=   -92.9804   ZX=     0.4941
   XY=   -46.6560   YY=  -950.1441   ZY=   487.4260
   XZ=     0.7682   YZ=   528.3290   ZZ=   315.7846
   Eigenvalues: -1134.5639  -383.0082   494.9299
     19  C    Isotropic =   218.2405   Anisotropy =    23.2496
   XX=   215.5162   YX=    -1.0240   ZX=    -0.3279
   XY=    -1.5412   YY=   232.8019   ZY=    -4.8297
   XZ=    -1.0826   YZ=    -4.8946   ZZ=   206.4034
   Eigenvalues:   205.4519   215.5293   233.7402
     20  H    Isotropic =    31.6448   Anisotropy =     6.5850
   XX=    32.1035   YX=     1.3865   ZX=    -1.5801
   XY=     3.0914   YY=    27.0167   ZY=     2.4083
   XZ=     1.4287   YZ=     0.2822   ZZ=    35.8144
   Eigenvalues:    26.0028    32.8969    36.0348
     21  H    Isotropic =    31.5713   Anisotropy =     7.1876
   XX=    31.6146   YX=     0.2238   ZX=     2.4530
   XY=     0.0233   YY=    27.4741   ZY=     0.2091
   XZ=     0.0893   YZ=     3.4837   ZZ=    35.6252
   Eigenvalues:    27.0703    31.2805    36.3631
     22  H    Isotropic =    31.3162   Anisotropy =    11.5352
   XX=    28.1132   YX=    -0.6606   ZX=     4.0270
   XY=     0.1839   YY=    29.8792   ZY=    -5.1151
   XZ=    -0.2222   YZ=    -4.7600   ZZ=    35.9562
   Eigenvalues:    26.6782    28.2641    39.0063
     23  H    Isotropic =    25.9130   Anisotropy =     5.9722
   XX=    28.0937   YX=     1.3843   ZX=    -0.9100
   XY=     1.4068   YY=    28.1831   ZY=    -1.5362
   XZ=    -0.8508   YZ=    -1.5891   ZZ=    21.4621
   Eigenvalues:    21.0700    26.7745    29.8945
     24  H    Isotropic =    25.3030   Anisotropy =     3.6904
   XX=    27.2185   YX=    -0.4418   ZX=    -0.4992
   XY=    -0.7760   YY=    27.0337   ZY=    -1.0266
   XZ=    -0.3678   YZ=    -1.0053   ZZ=    21.6567
   Eigenvalues:    21.4212    26.7245    27.7633
     25  H    Isotropic =    25.7384   Anisotropy =     7.0818
   XX=    29.5885   YX=     1.4645   ZX=    -1.3409
   XY=     1.1114   YY=    26.9716   ZY=    -1.4747
   XZ=    -1.2238   YZ=    -1.8147   ZZ=    20.6551
   Eigenvalues:    20.1556    26.6001    30.4596
     26  H    Isotropic =    31.8139   Anisotropy =    10.5100
   XX=    29.6792   YX=    -0.3380   ZX=     1.7988
   XY=     0.0368   YY=    30.7087   ZY=    -4.9715
   XZ=     2.1183   YZ=    -5.3838   ZZ=    35.0539
   Eigenvalues:    26.9020    29.7192    38.8206
     27  H    Isotropic =    31.8279   Anisotropy =    15.4937
   XX=    29.1029   YX=     0.9173   ZX=    -0.1418
   XY=     1.3095   YY=    40.7167   ZY=     4.1356
   XZ=    -0.5464   YZ=     5.3416   ZZ=    25.6640
   Eigenvalues:    24.2120    29.1146    42.1570
     28  H    Isotropic =    31.5922   Anisotropy =    14.9392
   XX=    35.8625   YX=    -5.9839   ZX=    -0.6702
   XY=    -6.9102   YY=    33.7496   ZY=     2.1173
   XZ=    -0.8656   YZ=     1.8278   ZZ=    25.1646
   Eigenvalues:    24.6751    28.5499    41.5517
     29  H    Isotropic =    31.7956   Anisotropy =    13.8977
   XX=    27.6250   YX=     0.1556   ZX=    -1.6343
   XY=     0.1037   YY=    28.2937   ZY=     4.2309
   XZ=    -3.0367   YZ=     3.5985   ZZ=    39.4680
   Eigenvalues:    26.3407    27.9853    41.0607
     30  H    Isotropic =    32.0145   Anisotropy =    11.6523
   XX=    33.7049   YX=    -4.8810   ZX=    -2.4023
   XY=    -3.1074   YY=    34.5008   ZY=     4.5052
   XZ=    -0.0606   YZ=     5.0251   ZZ=    27.8377
   Eigenvalues:    25.2737    30.9870    39.7827
     31  H    Isotropic =    31.1591   Anisotropy =    15.4148
   XX=    27.6039   YX=     3.4466   ZX=    -0.3549
   XY=     4.0375   YY=    37.1476   ZY=    -6.5653
   XZ=    -0.0486   YZ=    -6.2286   ZZ=    28.7257
   Eigenvalues:    24.2970    27.7446    41.4356
     32  H    Isotropic =    31.6426   Anisotropy =    15.7779
   XX=    37.9873   YX=     6.4276   ZX=     0.7019
   XY=     6.7138   YY=    31.7305   ZY=    -0.4477
   XZ=     1.2206   YZ=    -0.1635   ZZ=    25.2102
   Eigenvalues:    24.9586    27.8081    42.1613
     33  H    Isotropic =    32.1746   Anisotropy =    14.2246
   XX=    27.5447   YX=    -0.1480   ZX=     1.5277
   XY=     0.3237   YY=    29.2995   ZY=     4.5178
   XZ=     1.9936   YZ=     4.7835   ZZ=    39.6795
   Eigenvalues:    26.8829    27.9832    41.6576
     34  H    Isotropic =    32.0669   Anisotropy =     8.2256
   XX=    29.2578   YX=     2.5784   ZX=     1.0974
   XY=     2.5098   YY=    31.7926   ZY=    -3.2241
   XZ=     1.1133   YZ=    -4.1516   ZZ=    35.1504
   Eigenvalues:    26.5904    32.0597    37.5507
     35  H    Isotropic =    31.6266   Anisotropy =    14.7814
   XX=    38.9366   YX=    -4.1261   ZX=     3.3806
   XY=    -4.0810   YY=    29.5110   ZY=     0.3902
   XZ=     5.0752   YZ=     0.1431   ZZ=    26.4321
   Eigenvalues:    24.6012    28.7977    41.4809
     36  H    Isotropic =    31.2777   Anisotropy =    10.1740
   XX=    31.4669   YX=     2.5290   ZX=     3.2254
   XY=     1.4555   YY=    34.4285   ZY=     2.7784
   XZ=     1.8385   YZ=     6.2222   ZZ=    27.9376
   Eigenvalues:    25.3000    30.4727    38.0603
     37  H    Isotropic =    31.0104   Anisotropy =    12.2756
   XX=    37.2566   YX=    -3.4008   ZX=    -0.8425
   XY=    -4.2044   YY=    31.6726   ZY=    -1.0164
   XZ=    -1.0000   YZ=    -0.7508   ZZ=    24.1020
   Eigenvalues:    23.8445    29.9925    39.1941
     38  H    Isotropic =    30.7550   Anisotropy =    11.0355
   XX=    29.3054   YX=     0.0285   ZX=    -2.8312
   XY=     0.2838   YY=    29.9022   ZY=    -4.4160
   XZ=    -2.4457   YZ=    -7.3218   ZZ=    33.0575
   Eigenvalues:    24.8627    29.2903    38.1120
 End of Minotr F.D. properties file   721 does not exist.
 End of Minotr F.D. properties file   722 does not exist.
 End of Minotr F.D. properties file   788 does not exist.

 **********************************************************************

            Population analysis using the SCF Density.

 **********************************************************************

 Orbital symmetries:
       Occupied  (A) (A) (A) (A) (A) (A) (A) (A) (A) (A) (A) (A)
                 (A) (A) (A) (A) (A) (A) (A) (A) (A) (A) (A) (A)
                 (A) (A) (A) (A) (A) (A) (A) (A) (A) (A) (A) (A)
                 (A) (A) (A) (A) (A) (A) (A) (A) (A) (A) (A) (A)
                 (A) (A) (A) (A) (A) (A) (A) (A) (A) (A) (A) (A)
                 (A) (A) (A) (A) (A) (A) (A) (A) (A)
       Virtual   (A) (A) (A) (A) (A) (A) (A) (A) (A) (A) (A) (A)
                 (A) (A) (A) (A) (A) (A) (A) (A) (A) (A) (A) (A)
                 (A) (A) (A) (A) (A) (A) (A) (A) (A) (A) (A) (A)
                 (A) (A) (A) (A) (A) (A) (A) (A) (A)
 The electronic state is 1-A.
 Alpha  occ. eigenvalues --  -20.29989 -20.26455 -15.31583 -11.11561 -11.11391
 Alpha  occ. eigenvalues --  -11.09758 -11.08084 -11.07857 -11.06974 -11.06147
 Alpha  occ. eigenvalues --  -11.05267 -11.05158 -11.04395 -11.04025 -11.03998
 Alpha  occ. eigenvalues --  -11.03920 -11.02858 -11.02257 -11.01924  -1.34553
 Alpha  occ. eigenvalues --   -1.31745  -1.20109  -1.09823  -1.05013  -1.03071
 Alpha  occ. eigenvalues --   -0.99153  -0.97877  -0.95221  -0.92140  -0.88363
 Alpha  occ. eigenvalues --   -0.83979  -0.80571  -0.77882  -0.74565  -0.74166
 Alpha  occ. eigenvalues --   -0.72697  -0.70183  -0.65102  -0.63106  -0.62182
 Alpha  occ. eigenvalues --   -0.61692  -0.60883  -0.58726  -0.58028  -0.55160
 Alpha  occ. eigenvalues --   -0.55039  -0.54467  -0.53537  -0.53090  -0.50770
 Alpha  occ. eigenvalues --   -0.50569  -0.50297  -0.49590  -0.47933  -0.46964
 Alpha  occ. eigenvalues --   -0.45841  -0.45523  -0.44479  -0.43915  -0.43428
 Alpha  occ. eigenvalues --   -0.42877  -0.41991  -0.41342  -0.39250  -0.36575
 Alpha  occ. eigenvalues --   -0.31830  -0.27793  -0.27403  -0.24559
 Alpha virt. eigenvalues --    0.21325   0.26851   0.34581   0.49128   0.50942
 Alpha virt. eigenvalues --    0.53247   0.54960   0.55818   0.58150   0.59062
 Alpha virt. eigenvalues --    0.60367   0.60971   0.62368   0.64850   0.65341
 Alpha virt. eigenvalues --    0.65886   0.66301   0.67595   0.68615   0.70238
 Alpha virt. eigenvalues --    0.70411   0.71863   0.72316   0.73312   0.73562
 Alpha virt. eigenvalues --    0.73762   0.74339   0.75003   0.75983   0.76917
 Alpha virt. eigenvalues --    0.77989   0.78894   0.79061   0.80002   0.81819
 Alpha virt. eigenvalues --    0.83016   0.84337   0.86069   0.86821   0.88154
 Alpha virt. eigenvalues --    0.89840   0.93493   1.00802   1.11943   1.13419
          Condensed to atoms (all electrons):
               1          2          3          4          5          6
     1  C    4.757744   0.505359  -0.028698  -0.009933  -0.027656   0.497444
     2  C    0.505359   4.807558   0.504193  -0.031418  -0.011302  -0.031342
     3  C   -0.028698   0.504193   4.759031   0.508904  -0.029281  -0.009619
     4  C   -0.009933  -0.031418   0.508904   4.806697   0.499201  -0.031831
     5  C   -0.027656  -0.011302  -0.029281   0.499201   4.755603   0.489066
     6  C    0.497444  -0.031342  -0.009619  -0.031831   0.489066   4.876330
     7  C   -0.023255   0.000765   0.000019   0.000805  -0.029998   0.388804
     8  O    0.000240   0.000008   0.000347  -0.026936   0.293533  -0.016620
     9  C    0.000028   0.000000  -0.000020   0.001709  -0.040323  -0.007540
    10  C    0.000615  -0.000007  -0.000000  -0.000033  -0.004851  -0.035388
    11  C    0.000000   0.000000   0.000000  -0.000014   0.001600  -0.000002
    12  C   -0.000000  -0.000000  -0.000000   0.000000  -0.000014  -0.000000
    13  N    0.000000  -0.000000  -0.000000  -0.000000   0.000000  -0.000002
    14  C   -0.000004   0.000000  -0.000000   0.000000   0.000017   0.000579
    15  C    0.000000  -0.000000   0.000000  -0.000000  -0.000000  -0.000002
    16  C   -0.000000   0.000000  -0.000000   0.000000  -0.000000   0.000000
    17  C   -0.000000  -0.000000   0.000000  -0.000000   0.000000   0.000000
    18  O   -0.000999  -0.000004  -0.000000  -0.000002   0.000328  -0.027586
    19  C    0.381513  -0.030089   0.000876   0.000011   0.000711  -0.024127
    20  H   -0.000013   0.000000   0.000000  -0.000009   0.000044  -0.000386
    21  H   -0.000013  -0.000001   0.000001   0.000068  -0.002833   0.000676
    22  H   -0.000000   0.000000   0.000000   0.000000   0.000001   0.000030
    23  H   -0.025074   0.394167  -0.026808   0.001417   0.000049   0.001265
    24  H    0.001320  -0.024821   0.393586  -0.025139   0.001371   0.000010
    25  H    0.000036   0.001378  -0.024621   0.393426  -0.025311   0.001233
    26  H    0.000000  -0.000000   0.000000  -0.000001   0.000027  -0.000000
    27  H   -0.000000  -0.000000   0.000000  -0.000001   0.000010   0.000000
    28  H    0.000000  -0.000000   0.000000  -0.000000   0.000000  -0.000000
    29  H    0.000000   0.000000  -0.000000  -0.000000  -0.000000  -0.000000
    30  H    0.000000  -0.000000   0.000000  -0.000000  -0.000000  -0.000006
    31  H   -0.000000   0.000000  -0.000000   0.000000   0.000000   0.000000
    32  H   -0.000000   0.000000   0.000000  -0.000000  -0.000000   0.000000
    33  H    0.000000  -0.000000   0.000000  -0.000000  -0.000000  -0.000000
    34  H   -0.000000   0.000000  -0.000000   0.000000  -0.000000   0.000000
    35  H    0.000000  -0.000000   0.000000  -0.000000   0.000000  -0.000000
    36  H   -0.021142   0.000773  -0.000024   0.000002   0.000001  -0.001975
    37  H   -0.020525  -0.005617   0.000061  -0.000000  -0.000016   0.001135
    38  H   -0.021154   0.000662  -0.000023   0.000002  -0.000000  -0.001738
               7          8          9         10         11         12
     1  C   -0.023255   0.000240   0.000028   0.000615   0.000000  -0.000000
     2  C    0.000765   0.000008   0.000000  -0.000007   0.000000  -0.000000
     3  C    0.000019   0.000347  -0.000020  -0.000000   0.000000  -0.000000
     4  C    0.000805  -0.026936   0.001709  -0.000033  -0.000014   0.000000
     5  C   -0.029998   0.293533  -0.040323  -0.004851   0.001600  -0.000014
     6  C    0.388804  -0.016620  -0.007540  -0.035388  -0.000002  -0.000000
     7  C    4.774264  -0.001725  -0.027376   0.356014   0.000837   0.000009
     8  O   -0.001725   7.795325   0.262375  -0.017419  -0.019201   0.000255
     9  C   -0.027376   0.262375   4.744104   0.356965   0.361956  -0.022259
    10  C    0.356014  -0.017419   0.356965   4.844423  -0.024204  -0.004287
    11  C    0.000837  -0.019201   0.361956  -0.024204   4.773684   0.360145
    12  C    0.000009   0.000255  -0.022259  -0.004287   0.360145   4.696859
    13  N    0.000393  -0.000001  -0.002999  -0.020178  -0.021737   0.331567
    14  C   -0.019896   0.000227  -0.020268   0.355863  -0.004575  -0.031445
    15  C   -0.000858  -0.000001   0.000659  -0.023060   0.000001   0.001293
    16  C    0.000006   0.000000  -0.000011   0.000185  -0.000005   0.001405
    17  C   -0.000003  -0.000000   0.000108  -0.000975  -0.001413  -0.033384
    18  O    0.432652  -0.000000   0.000272  -0.025184  -0.000001  -0.000000
    19  C   -0.002602  -0.000001  -0.000000   0.000007  -0.000000   0.000000
    20  H   -0.023834  -0.000856  -0.021844   0.378966  -0.001797   0.000146
    21  H   -0.003188  -0.018122   0.376486  -0.025560  -0.025181  -0.001362
    22  H   -0.003161  -0.000003  -0.001031  -0.027003  -0.000115  -0.000177
    23  H   -0.000014   0.000000  -0.000000   0.000000   0.000000  -0.000000
    24  H    0.000001  -0.000005   0.000000  -0.000000  -0.000000   0.000000
    25  H   -0.000019  -0.001088   0.000032   0.000000  -0.000002   0.000000
    26  H    0.000002  -0.000778  -0.022424  -0.001916   0.381103  -0.021023
    27  H   -0.000019  -0.000483  -0.021358   0.001289   0.381565  -0.019554
    28  H    0.000001  -0.000004   0.001243  -0.000013  -0.023183   0.382757
    29  H   -0.000001  -0.000000  -0.002008  -0.000125  -0.026563   0.380749
    30  H   -0.000096  -0.000000   0.000041  -0.004526   0.000001  -0.000029
    31  H    0.000001   0.000000  -0.000014   0.001175  -0.000001  -0.000013
    32  H   -0.000000  -0.000000   0.000000  -0.000013  -0.000001  -0.000013
    33  H    0.000000  -0.000000   0.000001   0.000006   0.000002  -0.000031
    34  H   -0.000003   0.000002   0.000053   0.000139   0.000178  -0.003009
    35  H    0.000000  -0.000000  -0.000004  -0.000024  -0.000055  -0.000689
    36  H   -0.000100  -0.000000  -0.000000  -0.000002   0.000000   0.000000
    37  H    0.000015   0.000000   0.000000   0.000000   0.000000  -0.000000
    38  H   -0.000039  -0.000000  -0.000000  -0.000003  -0.000000  -0.000000
              13         14         15         16         17         18
     1  C    0.000000  -0.000004   0.000000  -0.000000  -0.000000  -0.000999
     2  C   -0.000000   0.000000  -0.000000   0.000000  -0.000000  -0.000004
     3  C   -0.000000  -0.000000   0.000000  -0.000000   0.000000  -0.000000
     4  C   -0.000000   0.000000  -0.000000   0.000000  -0.000000  -0.000002
     5  C    0.000000   0.000017  -0.000000  -0.000000   0.000000   0.000328
     6  C   -0.000002   0.000579  -0.000002   0.000000   0.000000  -0.027586
     7  C    0.000393  -0.019896  -0.000858   0.000006  -0.000003   0.432652
     8  O   -0.000001   0.000227  -0.000001   0.000000  -0.000000  -0.000000
     9  C   -0.002999  -0.020268   0.000659  -0.000011   0.000108   0.000272
    10  C   -0.020178   0.355863  -0.023060   0.000185  -0.000975  -0.025184
    11  C   -0.021737  -0.004575   0.000001  -0.000005  -0.001413  -0.000001
    12  C    0.331567  -0.031445   0.001293   0.001405  -0.033384  -0.000000
    13  N    6.504747   0.331040  -0.032513  -0.033206   0.332782   0.000000
    14  C    0.331040   4.727832   0.363708  -0.031560  -0.047085  -0.001414
    15  C   -0.032513   0.363708   4.759556   0.360111  -0.032923  -0.000399
    16  C   -0.033206  -0.031560   0.360111   4.756245   0.364739   0.000002
    17  C    0.332782  -0.047085  -0.032923   0.364739   4.714813  -0.000000
    18  O    0.000000  -0.001414  -0.000399   0.000002  -0.000000   7.855349
    19  C    0.000000  -0.000000   0.000000  -0.000000  -0.000000  -0.001531
    20  H   -0.000365  -0.020654  -0.003266   0.000212  -0.000216  -0.000031
    21  H    0.000090  -0.000991  -0.000006  -0.000000  -0.000002   0.000007
    22  H   -0.023691   0.382865  -0.020786   0.001386   0.001994   0.000389
    23  H    0.000000  -0.000000   0.000000  -0.000000   0.000000   0.000000
    24  H   -0.000000   0.000000  -0.000000   0.000000  -0.000000  -0.000000
    25  H   -0.000000  -0.000000  -0.000000  -0.000000  -0.000000   0.000000
    26  H   -0.000760   0.000132  -0.000007  -0.000005  -0.000415  -0.000000
    27  H    0.000861   0.000018   0.000001   0.000000   0.000004   0.000000
    28  H   -0.019037   0.001613  -0.000029   0.000027  -0.003685  -0.000000
    29  H   -0.024610  -0.001060  -0.000001  -0.000033   0.001834   0.000000
    30  H    0.000977  -0.019209   0.383833  -0.021267   0.001159  -0.000039
    31  H    0.000349  -0.020826   0.384975  -0.022100   0.001218   0.000012
    32  H    0.000243   0.001176  -0.021731   0.385443  -0.021485  -0.000000
    33  H    0.001100   0.001111  -0.020534   0.384121  -0.020920   0.000000
    34  H   -0.021193  -0.001127   0.000229  -0.024016   0.378928   0.000000
    35  H   -0.020731   0.001899   0.001411  -0.019388   0.383875   0.000000
    36  H   -0.000000   0.000000  -0.000000   0.000000   0.000000  -0.000180
    37  H    0.000000   0.000000   0.000000  -0.000000   0.000000   0.000059
    38  H   -0.000000   0.000000   0.000000  -0.000000  -0.000000  -0.000470
              19         20         21         22         23         24
     1  C    0.381513  -0.000013  -0.000013  -0.000000  -0.025074   0.001320
     2  C   -0.030089   0.000000  -0.000001   0.000000   0.394167  -0.024821
     3  C    0.000876   0.000000   0.000001   0.000000  -0.026808   0.393586
     4  C    0.000011  -0.000009   0.000068   0.000000   0.001417  -0.025139
     5  C    0.000711   0.000044  -0.002833   0.000001   0.000049   0.001371
     6  C   -0.024127  -0.000386   0.000676   0.000030   0.001265   0.000010
     7  C   -0.002602  -0.023834  -0.003188  -0.003161  -0.000014   0.000001
     8  O   -0.000001  -0.000856  -0.018122  -0.000003   0.000000  -0.000005
     9  C   -0.000000  -0.021844   0.376486  -0.001031  -0.000000   0.000000
    10  C    0.000007   0.378966  -0.025560  -0.027003   0.000000  -0.000000
    11  C   -0.000000  -0.001797  -0.025181  -0.000115   0.000000  -0.000000
    12  C    0.000000   0.000146  -0.001362  -0.000177  -0.000000   0.000000
    13  N    0.000000  -0.000365   0.000090  -0.023691   0.000000  -0.000000
    14  C   -0.000000  -0.020654  -0.000991   0.382865  -0.000000   0.000000
    15  C    0.000000  -0.003266  -0.000006  -0.020786   0.000000  -0.000000
    16  C   -0.000000   0.000212  -0.000000   0.001386  -0.000000   0.000000
    17  C   -0.000000  -0.000216  -0.000002   0.001994   0.000000  -0.000000
    18  O   -0.001531  -0.000031   0.000007   0.000389   0.000000  -0.000000
    19  C    4.713123   0.000000  -0.000000  -0.000000  -0.004229  -0.000016
    20  H    0.000000   0.623740   0.001784   0.001709  -0.000000  -0.000000
    21  H   -0.000000   0.001784   0.643063   0.000280  -0.000000   0.000000
    22  H   -0.000000   0.001709   0.000280   0.628990  -0.000000  -0.000000
    23  H   -0.004229  -0.000000  -0.000000  -0.000000   0.605276  -0.003748
    24  H   -0.000016  -0.000000   0.000000  -0.000000  -0.003748   0.594076
    25  H    0.000000  -0.000000   0.000000  -0.000000  -0.000032  -0.003713
    26  H   -0.000000   0.000173   0.001852   0.000001   0.000000  -0.000000
    27  H   -0.000000   0.000003  -0.003029   0.000002   0.000000  -0.000000
    28  H   -0.000000  -0.000008  -0.000000  -0.000004   0.000000  -0.000000
    29  H    0.000000   0.000003   0.000366   0.000432   0.000000   0.000000
    30  H    0.000000  -0.000099  -0.000001   0.000827   0.000000  -0.000000
    31  H   -0.000000   0.000031   0.000001  -0.005564  -0.000000   0.000000
    32  H    0.000000  -0.000004  -0.000000  -0.000042   0.000000  -0.000000
    33  H    0.000000  -0.000049   0.000000  -0.000021   0.000000  -0.000000
    34  H   -0.000000  -0.000493  -0.000004  -0.000065  -0.000000   0.000000
    35  H    0.000000   0.000003   0.000000  -0.000032   0.000000  -0.000000
    36  H    0.380506   0.000001  -0.000000   0.000000   0.000066   0.000000
    37  H    0.382834  -0.000000  -0.000000  -0.000000   0.000175  -0.000003
    38  H    0.380832  -0.000000   0.000000  -0.000000   0.000073   0.000000
              25         26         27         28         29         30
     1  C    0.000036   0.000000  -0.000000   0.000000   0.000000   0.000000
     2  C    0.001378  -0.000000  -0.000000  -0.000000   0.000000  -0.000000
     3  C   -0.024621   0.000000   0.000000   0.000000  -0.000000   0.000000
     4  C    0.393426  -0.000001  -0.000001  -0.000000  -0.000000  -0.000000
     5  C   -0.025311   0.000027   0.000010   0.000000  -0.000000  -0.000000
     6  C    0.001233  -0.000000   0.000000  -0.000000  -0.000000  -0.000006
     7  C   -0.000019   0.000002  -0.000019   0.000001  -0.000001  -0.000096
     8  O   -0.001088  -0.000778  -0.000483  -0.000004  -0.000000  -0.000000
     9  C    0.000032  -0.022424  -0.021358   0.001243  -0.002008   0.000041
    10  C    0.000000  -0.001916   0.001289  -0.000013  -0.000125  -0.004526
    11  C   -0.000002   0.381103   0.381565  -0.023183  -0.026563   0.000001
    12  C    0.000000  -0.021023  -0.019554   0.382757   0.380749  -0.000029
    13  N   -0.000000  -0.000760   0.000861  -0.019037  -0.024610   0.000977
    14  C   -0.000000   0.000132   0.000018   0.001613  -0.001060  -0.019209
    15  C   -0.000000  -0.000007   0.000001  -0.000029  -0.000001   0.383833
    16  C   -0.000000  -0.000005   0.000000   0.000027  -0.000033  -0.021267
    17  C   -0.000000  -0.000415   0.000004  -0.003685   0.001834   0.001159
    18  O    0.000000  -0.000000   0.000000  -0.000000   0.000000  -0.000039
    19  C    0.000000  -0.000000  -0.000000  -0.000000   0.000000   0.000000
    20  H   -0.000000   0.000173   0.000003  -0.000008   0.000003  -0.000099
    21  H    0.000000   0.001852  -0.003029  -0.000000   0.000366  -0.000001
    22  H   -0.000000   0.000001   0.000002  -0.000004   0.000432   0.000827
    23  H   -0.000032   0.000000   0.000000   0.000000   0.000000   0.000000
    24  H   -0.003713  -0.000000  -0.000000  -0.000000   0.000000  -0.000000
    25  H    0.589577  -0.000000  -0.000000  -0.000000  -0.000000  -0.000000
    26  H   -0.000000   0.628678  -0.023638  -0.002761   0.001925   0.000000
    27  H   -0.000000  -0.023638   0.624534  -0.001434  -0.002706  -0.000000
    28  H   -0.000000  -0.002761  -0.001434   0.620761  -0.022327   0.000001
    29  H   -0.000000   0.001925  -0.002706  -0.022327   0.635354  -0.000000
    30  H   -0.000000   0.000000  -0.000000   0.000001  -0.000000   0.627051
    31  H   -0.000000   0.000000  -0.000000   0.000001   0.000001  -0.023085
    32  H   -0.000000  -0.000000   0.000000  -0.000000   0.000001   0.001560
    33  H   -0.000000   0.000002  -0.000000  -0.000001   0.000001  -0.006194
    34  H    0.000000  -0.000521  -0.000021  -0.000238  -0.000045   0.000007
    35  H   -0.000000   0.000031   0.000000   0.000266   0.000037  -0.000023
    36  H   -0.000000  -0.000000  -0.000000   0.000000  -0.000000   0.000000
    37  H    0.000000   0.000000  -0.000000   0.000000   0.000000   0.000000
    38  H   -0.000000   0.000000   0.000000  -0.000000  -0.000000  -0.000000
              31         32         33         34         35         36
     1  C   -0.000000  -0.000000   0.000000  -0.000000   0.000000  -0.021142
     2  C    0.000000   0.000000  -0.000000   0.000000  -0.000000   0.000773
     3  C   -0.000000   0.000000   0.000000  -0.000000   0.000000  -0.000024
     4  C    0.000000  -0.000000  -0.000000   0.000000  -0.000000   0.000002
     5  C    0.000000  -0.000000  -0.000000  -0.000000   0.000000   0.000001
     6  C    0.000000   0.000000  -0.000000   0.000000  -0.000000  -0.001975
     7  C    0.000001  -0.000000   0.000000  -0.000003   0.000000  -0.000100
     8  O    0.000000  -0.000000  -0.000000   0.000002  -0.000000  -0.000000
     9  C   -0.000014   0.000000   0.000001   0.000053  -0.000004  -0.000000
    10  C    0.001175  -0.000013   0.000006   0.000139  -0.000024  -0.000002
    11  C   -0.000001  -0.000001   0.000002   0.000178  -0.000055   0.000000
    12  C   -0.000013  -0.000013  -0.000031  -0.003009  -0.000689   0.000000
    13  N    0.000349   0.000243   0.001100  -0.021193  -0.020731  -0.000000
    14  C   -0.020826   0.001176   0.001111  -0.001127   0.001899   0.000000
    15  C    0.384975  -0.021731  -0.020534   0.000229   0.001411  -0.000000
    16  C   -0.022100   0.385443   0.384121  -0.024016  -0.019388   0.000000
    17  C    0.001218  -0.021485  -0.020920   0.378928   0.383875   0.000000
    18  O    0.000012  -0.000000   0.000000   0.000000   0.000000  -0.000180
    19  C   -0.000000   0.000000   0.000000  -0.000000   0.000000   0.380506
    20  H    0.000031  -0.000004  -0.000049  -0.000493   0.000003   0.000001
    21  H    0.000001  -0.000000   0.000000  -0.000004   0.000000  -0.000000
    22  H   -0.005564  -0.000042  -0.000021  -0.000065  -0.000032   0.000000
    23  H   -0.000000   0.000000   0.000000  -0.000000   0.000000   0.000066
    24  H    0.000000  -0.000000  -0.000000   0.000000  -0.000000   0.000000
    25  H   -0.000000  -0.000000  -0.000000   0.000000  -0.000000  -0.000000
    26  H    0.000000  -0.000000   0.000002  -0.000521   0.000031  -0.000000
    27  H   -0.000000   0.000000  -0.000000  -0.000021   0.000000  -0.000000
    28  H    0.000001  -0.000000  -0.000001  -0.000238   0.000266   0.000000
    29  H    0.000001   0.000001   0.000001  -0.000045   0.000037  -0.000000
    30  H   -0.023085   0.001560  -0.006194   0.000007  -0.000023   0.000000
    31  H    0.627717  -0.007665   0.001550  -0.000028  -0.000041   0.000000
    32  H   -0.007665   0.630281  -0.023557   0.001837  -0.005334  -0.000000
    33  H    0.001550  -0.023557   0.634891  -0.005313   0.000841   0.000000
    34  H   -0.000028   0.001837  -0.005313   0.660854  -0.027117  -0.000000
    35  H   -0.000041  -0.005334   0.000841  -0.027117   0.623978   0.000000
    36  H    0.000000  -0.000000   0.000000  -0.000000   0.000000   0.609122
    37  H   -0.000000   0.000000  -0.000000  -0.000000  -0.000000  -0.022000
    38  H    0.000000   0.000000  -0.000000   0.000000  -0.000000  -0.018440
              37         38
     1  C   -0.020525  -0.021154
     2  C   -0.005617   0.000662
     3  C    0.000061  -0.000023
     4  C   -0.000000   0.000002
     5  C   -0.000016  -0.000000
     6  C    0.001135  -0.001738
     7  C    0.000015  -0.000039
     8  O    0.000000  -0.000000
     9  C    0.000000  -0.000000
    10  C    0.000000  -0.000003
    11  C    0.000000  -0.000000
    12  C   -0.000000  -0.000000
    13  N    0.000000  -0.000000
    14  C    0.000000   0.000000
    15  C    0.000000   0.000000
    16  C   -0.000000  -0.000000
    17  C    0.000000  -0.000000
    18  O    0.000059  -0.000470
    19  C    0.382834   0.380832
    20  H   -0.000000  -0.000000
    21  H   -0.000000   0.000000
    22  H   -0.000000  -0.000000
    23  H    0.000175   0.000073
    24  H   -0.000003   0.000000
    25  H    0.000000  -0.000000
    26  H    0.000000   0.000000
    27  H   -0.000000   0.000000
    28  H    0.000000  -0.000000
    29  H    0.000000  -0.000000
    30  H    0.000000  -0.000000
    31  H   -0.000000   0.000000
    32  H    0.000000   0.000000
    33  H   -0.000000  -0.000000
    34  H   -0.000000   0.000000
    35  H   -0.000000  -0.000000
    36  H   -0.022000  -0.018440
    37  H    0.624392  -0.021879
    38  H   -0.021879   0.604762
 Mulliken charges:
               1
     1  C    0.034165
     2  C   -0.080263
     3  C   -0.047925
     4  C   -0.086926
     5  C    0.130023
     6  C   -0.068406
     7  C    0.181596
     8  O   -0.249069
     9  C    0.083447
    10  C   -0.080879
    11  C   -0.113021
    12  C   -0.017894
    13  N   -0.283123
    14  C    0.052032
    15  C   -0.099660
    16  C   -0.102290
    17  C   -0.018949
    18  O   -0.231232
    19  C   -0.177820
    20  H    0.067111
    21  H    0.055618
    22  H    0.062790
    23  H    0.057417
    24  H    0.067081
    25  H    0.069105
    26  H    0.060322
    27  H    0.063956
    28  H    0.066053
    29  H    0.058778
    30  H    0.059117
    31  H    0.062307
    32  H    0.059305
    33  H    0.052994
    34  H    0.040968
    35  H    0.061096
    36  H    0.073392
    37  H    0.061371
    38  H    0.077415
 Sum of Mulliken charges =  -0.00000
 Mulliken charges with hydrogens summed into heavy atoms:
               1
     1  C    0.034165
     2  C   -0.022846
     3  C    0.019156
     4  C   -0.017821
     5  C    0.130023
     6  C   -0.068406
     7  C    0.181596
     8  O   -0.249069
     9  C    0.139065
    10  C   -0.013768
    11  C    0.011257
    12  C    0.106936
    13  N   -0.283123
    14  C    0.114821
    15  C    0.021765
    16  C    0.010009
    17  C    0.083115
    18  O   -0.231232
    19  C    0.034357
 Electronic spatial extent (au):  <R**2>=           5115.2971
 Charge=              0.0000 electrons
 Dipole moment (field-independent basis, Debye):
    X=             -0.2736    Y=             -0.9007    Z=              0.6529  Tot=              1.1456
 Quadrupole moment (field-independent basis, Debye-Ang):
   XX=           -103.1494   YY=           -108.9099   ZZ=           -105.0383
   XY=             -2.1972   XZ=              2.4686   YZ=              2.7532
 Traceless Quadrupole moment (field-independent basis, Debye-Ang):
   XX=              2.5498   YY=             -3.2107   ZZ=              0.6609
   XY=             -2.1972   XZ=              2.4686   YZ=              2.7532
 Octapole moment (field-independent basis, Debye-Ang**2):
  XXX=            -33.0614  YYY=             -7.0617  ZZZ=             -5.6281  XYY=              3.3648
  XXY=             -3.7378  XXZ=             13.4763  XZZ=              3.4908  YZZ=              0.5223
  YYZ=              0.8086  XYZ=              2.4095
 Hexadecapole moment (field-independent basis, Debye-Ang**3):
 XXXX=          -4613.9568 YYYY=          -1511.0812 ZZZZ=           -324.0062 XXXY=            -11.3530
 XXXZ=             26.8628 YYYX=             -1.1447 YYYZ=              4.2244 ZZZX=              3.5877
 ZZZY=             -8.4141 XXYY=           -983.3101 XXZZ=           -871.5083 YYZZ=           -300.5475
 XXYZ=            -14.4249 YYXZ=            -12.9311 ZZXY=             -3.7719
 N-N= 1.491406944694D+03 E-N=-4.877919436928D+03  KE= 8.035568450126D+02
 ******************************Gaussian NBO Version 3.1******************************
             N A T U R A L   A T O M I C   O R B I T A L   A N D
          N A T U R A L   B O N D   O R B I T A L   A N A L Y S I S
 ******************************Gaussian NBO Version 3.1******************************
       /RESON  / : Allow strongly delocalized NBO set
       /NLMO   / : Form Natural Localized Molecular Orbitals
       /NMR /    : Analyze NMR Sheilding Tensor 

 Analyzing the SCF density

 Job title: Title Card Required                                             

 Storage needed:     43472 in NPA,     53775 in NBO,    102144 in NLMO ( 104850000 available)
 GSVD:  LWork=      -13908 too small for GESVD, short by       66690 words or       66690 for optimal perf.


 NATURAL POPULATIONS:  Natural atomic orbital occupancies 
                                                          
   NAO  Atom  No  lang   Type(AO)    Occupancy      Energy
 ----------------------------------------------------------
     1    C    1  S      Cor( 1S)     1.99991     -10.98424
     2    C    1  S      Val( 2S)     1.08141      -0.20065
     3    C    1  px     Val( 2p)     0.95945       0.15900
     4    C    1  py     Val( 2p)     0.94935       0.14801
     5    C    1  pz     Val( 2p)     0.93389       0.02513

     6    C    2  S      Cor( 1S)     1.99995     -10.94685
     7    C    2  S      Val( 2S)     1.07999      -0.18557
     8    C    2  px     Val( 2p)     0.97392       0.15213
     9    C    2  py     Val( 2p)     0.97339       0.15043
    10    C    2  pz     Val( 2p)     1.04735       0.00045

    11    C    3  S      Cor( 1S)     1.99994     -10.96424
    12    C    3  S      Val( 2S)     1.08021      -0.18938
    13    C    3  px     Val( 2p)     0.98314       0.14314
    14    C    3  py     Val( 2p)     0.98268       0.14143
    15    C    3  pz     Val( 2p)     0.96102       0.01431

    16    C    4  S      Cor( 1S)     1.99994     -10.94863
    17    C    4  S      Val( 2S)     1.07679      -0.18571
    18    C    4  px     Val( 2p)     0.97122       0.15047
    19    C    4  py     Val( 2p)     0.99040       0.13904
    20    C    4  pz     Val( 2p)     1.05815      -0.00500

    21    C    5  S      Cor( 1S)     1.99978     -11.03348
    22    C    5  S      Val( 2S)     1.06164      -0.21673
    23    C    5  px     Val( 2p)     0.85954       0.14535
    24    C    5  py     Val( 2p)     0.92929       0.15152
    25    C    5  pz     Val( 2p)     0.96216      -0.00793

    26    C    6  S      Cor( 1S)     1.99991     -10.96109
    27    C    6  S      Val( 2S)     1.08823      -0.20925
    28    C    6  px     Val( 2p)     0.97405       0.14056
    29    C    6  py     Val( 2p)     0.96773       0.13896
    30    C    6  pz     Val( 2p)     1.10084      -0.01989

    31    C    7  S      Cor( 1S)     1.99996     -11.05528
    32    C    7  S      Val( 2S)     1.08035      -0.24730
    33    C    7  px     Val( 2p)     0.94152       0.10968
    34    C    7  py     Val( 2p)     0.85073       0.16163
    35    C    7  pz     Val( 2p)     0.88832       0.00745

    36    O    8  S      Cor( 1S)     1.99999     -20.20954
    37    O    8  S      Val( 2S)     1.73395      -1.02216
    38    O    8  px     Val( 2p)     1.18217      -0.07159
    39    O    8  py     Val( 2p)     1.60107      -0.26635
    40    O    8  pz     Val( 2p)     1.73738      -0.31851

    41    C    9  S      Cor( 1S)     1.99988     -11.06174
    42    C    9  S      Val( 2S)     1.08426      -0.24178
    43    C    9  px     Val( 2p)     0.87455       0.07626
    44    C    9  py     Val( 2p)     0.93989       0.07072
    45    C    9  pz     Val( 2p)     0.94776       0.07295

    46    C   10  S      Cor( 1S)     1.99997     -11.00358
    47    C   10  S      Val( 2S)     1.10565      -0.23652
    48    C   10  px     Val( 2p)     0.99342       0.06407
    49    C   10  py     Val( 2p)     0.99120       0.06232
    50    C   10  pz     Val( 2p)     1.00949       0.06915

    51    C   11  S      Cor( 1S)     1.99997     -10.98920
    52    C   11  S      Val( 2S)     1.08669      -0.20781
    53    C   11  px     Val( 2p)     0.98046       0.07673
    54    C   11  py     Val( 2p)     1.00232       0.07465
    55    C   11  pz     Val( 2p)     1.02616       0.07102

    56    C   12  S      Cor( 1S)     1.99994     -11.01816
    57    C   12  S      Val( 2S)     1.06955      -0.20034
    58    C   12  px     Val( 2p)     0.99096       0.07509
    59    C   12  py     Val( 2p)     0.89703       0.10645
    60    C   12  pz     Val( 2p)     1.00785       0.06643

    61    N   13  S      Cor( 1S)     1.99999     -15.24940
    62    N   13  S      Val( 2S)     1.43894      -0.59639
    63    N   13  px     Val( 2p)     1.36293      -0.09013
    64    N   13  py     Val( 2p)     1.13802       0.00506
    65    N   13  pz     Val( 2p)     1.33008      -0.07280

    66    C   14  S      Cor( 1S)     1.99994     -11.02619
    67    C   14  S      Val( 2S)     1.08344      -0.21526
    68    C   14  px     Val( 2p)     0.88521       0.12057
    69    C   14  py     Val( 2p)     0.93007       0.08464
    70    C   14  pz     Val( 2p)     1.00215       0.07834

    71    C   15  S      Cor( 1S)     1.99996     -10.97702
    72    C   15  S      Val( 2S)     1.08696      -0.19319
    73    C   15  px     Val( 2p)     0.99521       0.09074
    74    C   15  py     Val( 2p)     0.98966       0.09416
    75    C   15  pz     Val( 2p)     0.99706       0.09034

    76    C   16  S      Cor( 1S)     1.99997     -10.97711
    77    C   16  S      Val( 2S)     1.08080      -0.18929
    78    C   16  px     Val( 2p)     1.00649       0.08622
    79    C   16  py     Val( 2p)     0.97581       0.09129
    80    C   16  pz     Val( 2p)     1.00617       0.09445

    81    C   17  S      Cor( 1S)     1.99995     -11.00848
    82    C   17  S      Val( 2S)     1.07221      -0.19473
    83    C   17  px     Val( 2p)     1.00510       0.07821
    84    C   17  py     Val( 2p)     0.99298       0.07374
    85    C   17  pz     Val( 2p)     0.89477       0.11300

    86    O   18  S      Cor( 1S)     1.99999     -20.11366
    87    O   18  S      Val( 2S)     1.80498      -1.06257
    88    O   18  px     Val( 2p)     1.91625      -0.35280
    89    O   18  py     Val( 2p)     1.33798      -0.11587
    90    O   18  pz     Val( 2p)     1.18269      -0.11015

    91    C   19  S      Cor( 1S)     1.99997     -10.97658
    92    C   19  S      Val( 2S)     1.07795      -0.18693
    93    C   19  px     Val( 2p)     1.04092       0.07207
    94    C   19  py     Val( 2p)     0.98504       0.08389
    95    C   19  pz     Val( 2p)     1.04268       0.07173

    96    H   20  S      Val( 1S)     0.95374       0.04734

    97    H   21  S      Val( 1S)     0.98055       0.02975

    98    H   22  S      Val( 1S)     0.96872       0.06034

    99    H   23  S      Val( 1S)     0.96785       0.06700

   100    H   24  S      Val( 1S)     0.96110       0.06114

   101    H   25  S      Val( 1S)     0.95571       0.07318

   102    H   26  S      Val( 1S)     0.96017       0.06361

   103    H   27  S      Val( 1S)     0.95637       0.06501

   104    H   28  S      Val( 1S)     0.95998       0.05917

   105    H   29  S      Val( 1S)     0.96817       0.05995

   106    H   30  S      Val( 1S)     0.96205       0.07318

   107    H   31  S      Val( 1S)     0.95883       0.07838

   108    H   32  S      Val( 1S)     0.96110       0.07486

   109    H   33  S      Val( 1S)     0.96694       0.06749

   110    H   34  S      Val( 1S)     0.98629       0.05352

   111    H   35  S      Val( 1S)     0.96538       0.06465

   112    H   36  S      Val( 1S)     0.94271       0.07948

   113    H   37  S      Val( 1S)     0.95525       0.07347

   114    H   38  S      Val( 1S)     0.93910       0.08321


 Summary of Natural Population Analysis:                  
                                                          
                                       Natural Population 
                Natural  -----------------------------------------------
    Atom  No    Charge         Core      Valence    Rydberg      Total
 -----------------------------------------------------------------------
      C    1    0.07599      1.99991     3.92410    0.00000     5.92401
      C    2   -0.07459      1.99995     4.07464    0.00000     6.07459
      C    3   -0.00699      1.99994     4.00705    0.00000     6.00699
      C    4   -0.09650      1.99994     4.09656    0.00000     6.09650
      C    5    0.18759      1.99978     3.81263    0.00000     5.81241
      C    6   -0.13076      1.99991     4.13085    0.00000     6.13076
      C    7    0.23913      1.99996     3.76091    0.00000     5.76087
      O    8   -0.25457      1.99999     6.25457    0.00000     8.25457
      C    9    0.15367      1.99988     3.84646    0.00000     5.84633
      C   10   -0.09974      1.99997     4.09977    0.00000     6.09974
      C   11   -0.09559      1.99997     4.09562    0.00000     6.09559
      C   12    0.03467      1.99994     3.96539    0.00000     5.96533
      N   13   -0.26996      1.99999     5.26997    0.00000     7.26996
      C   14    0.09920      1.99994     3.90086    0.00000     5.90080
      C   15   -0.06886      1.99996     4.06889    0.00000     6.06886
      C   16   -0.06924      1.99997     4.06927    0.00000     6.06924
      C   17    0.03499      1.99995     3.96506    0.00000     5.96501
      O   18   -0.24189      1.99999     6.24190    0.00000     8.24189
      C   19   -0.14656      1.99997     4.14659    0.00000     6.14656
      H   20    0.04626      0.00000     0.95374    0.00000     0.95374
      H   21    0.01945      0.00000     0.98055    0.00000     0.98055
      H   22    0.03128      0.00000     0.96872    0.00000     0.96872
      H   23    0.03215      0.00000     0.96785    0.00000     0.96785
      H   24    0.03890      0.00000     0.96110    0.00000     0.96110
      H   25    0.04429      0.00000     0.95571    0.00000     0.95571
      H   26    0.03983      0.00000     0.96017    0.00000     0.96017
      H   27    0.04363      0.00000     0.95637    0.00000     0.95637
      H   28    0.04002      0.00000     0.95998    0.00000     0.95998
      H   29    0.03183      0.00000     0.96817    0.00000     0.96817
      H   30    0.03795      0.00000     0.96205    0.00000     0.96205
      H   31    0.04117      0.00000     0.95883    0.00000     0.95883
      H   32    0.03890      0.00000     0.96110    0.00000     0.96110
      H   33    0.03306      0.00000     0.96694    0.00000     0.96694
      H   34    0.01371      0.00000     0.98629    0.00000     0.98629
      H   35    0.03462      0.00000     0.96538    0.00000     0.96538
      H   36    0.05729      0.00000     0.94271    0.00000     0.94271
      H   37    0.04475      0.00000     0.95525    0.00000     0.95525
      H   38    0.06090      0.00000     0.93910    0.00000     0.93910
 =======================================================================
   * Total *   -0.00000     37.99890   100.00110    0.00000   138.00000

                                 Natural Population      
 --------------------------------------------------------
   Core                      37.99890 ( 99.9971% of  38)
   Valence                  100.00110 (100.0011% of 100)
   Natural Minimal Basis    138.00000 (100.0000% of 138)
   Natural Rydberg Basis      0.00000 (  0.0000% of 138)
 --------------------------------------------------------

    Atom  No          Natural Electron Configuration
 ----------------------------------------------------------------------------
      C    1      [core]2S( 1.08)2p( 2.84)
      C    2      [core]2S( 1.08)2p( 2.99)
      C    3      [core]2S( 1.08)2p( 2.93)
      C    4      [core]2S( 1.08)2p( 3.02)
      C    5      [core]2S( 1.06)2p( 2.75)
      C    6      [core]2S( 1.09)2p( 3.04)
      C    7      [core]2S( 1.08)2p( 2.68)
      O    8      [core]2S( 1.73)2p( 4.52)
      C    9      [core]2S( 1.08)2p( 2.76)
      C   10      [core]2S( 1.11)2p( 2.99)
      C   11      [core]2S( 1.09)2p( 3.01)
      C   12      [core]2S( 1.07)2p( 2.90)
      N   13      [core]2S( 1.44)2p( 3.83)
      C   14      [core]2S( 1.08)2p( 2.82)
      C   15      [core]2S( 1.09)2p( 2.98)
      C   16      [core]2S( 1.08)2p( 2.99)
      C   17      [core]2S( 1.07)2p( 2.89)
      O   18      [core]2S( 1.80)2p( 4.44)
      C   19      [core]2S( 1.08)2p( 3.07)
      H   20            1S( 0.95)
      H   21            1S( 0.98)
      H   22            1S( 0.97)
      H   23            1S( 0.97)
      H   24            1S( 0.96)
      H   25            1S( 0.96)
      H   26            1S( 0.96)
      H   27            1S( 0.96)
      H   28            1S( 0.96)
      H   29            1S( 0.97)
      H   30            1S( 0.96)
      H   31            1S( 0.96)
      H   32            1S( 0.96)
      H   33            1S( 0.97)
      H   34            1S( 0.99)
      H   35            1S( 0.97)
      H   36            1S( 0.94)
      H   37            1S( 0.96)
      H   38            1S( 0.94)


 NATURAL BOND ORBITAL ANALYSIS:

                       Occupancies       Lewis Structure    Low   High
           Occ.    -------------------  -----------------   occ   occ
  Cycle   Thresh.   Lewis   Non-Lewis     CR  BD  3C  LP    (L)   (NL)   Dev
 =============================================================================
   1(1)    1.90   134.43174   3.56826     19  43   0   7     3      3    0.45
   2(2)    1.90   134.43174   3.56826     19  43   0   7     3      3    0.45
   3(1)    1.80   134.34685   3.65315     19  42   0   8     3      3    0.45
   4(2)    1.80   134.34685   3.65315     19  42   0   8     3      3    0.45
   5(1)    1.70   134.34685   3.65315     19  42   0   8     3      3    0.45
   6(2)    1.70   134.34685   3.65315     19  42   0   8     3      3    0.45
   7(1)    1.60   135.51916   2.48084     19  44   0   6     1      3    0.43
   8(2)    1.60   136.09393   1.90607     19  45   0   5     0      3    0.45
   9(3)    1.60   136.12362   1.87638     19  45   0   5     0      3    0.43
  10(4)    1.60   136.09393   1.90607     19  45   0   5     0      3    0.45
  11(5)    1.60   136.12362   1.87638     19  45   0   5     0      3    0.43
  12(1)    1.50   136.12362   1.87638     19  45   0   5     0      3    0.43
  13(2)    1.50   136.09393   1.90607     19  45   0   5     0      3    0.45
  14(3)    1.50   136.12362   1.87638     19  45   0   5     0      3    0.43
  15(1)    1.60   136.12362   1.87638     19  45   0   5     0      3    0.43
 -----------------------------------------------------------------------------

 Structure accepted: RESONANCE keyword permits strongly delocalized structure

 --------------------------------------------------------
   Core                     37.99890 ( 99.997% of  38)
   Valence Lewis            98.12472 ( 98.125% of 100)
  ==================       ============================
   Total Lewis             136.12362 ( 98.640% of 138)
  -----------------------------------------------------
   Valence non-Lewis         1.87638 (  1.360% of 138)
   Rydberg non-Lewis         0.00000 (  0.000% of 138)
  ==================       ============================
   Total non-Lewis           1.87638 (  1.360% of 138)
 --------------------------------------------------------


       (Occupancy)   Bond orbital/ Coefficients/ Hybrids
 ---------------------------------------------------------------------------------
     1. (1.98527) BD ( 1) C   1 - C   2  
                ( 50.03%)   0.7073* C   1 s( 33.73%)p 1.96( 66.27%)
                                            0.0000  0.5808 -0.6871 -0.4132  0.1408
                ( 49.97%)   0.7069* C   2 s( 34.47%)p 1.90( 65.53%)
                                            0.0001  0.5871  0.6770  0.4186 -0.1473
     2. (1.65777) BD ( 2) C   1 - C   2  
                ( 45.54%)   0.6749* C   1 s(  0.00%)p 1.00(100.00%)
                                            0.0000  0.0010  0.0920  0.1819  0.9790
                ( 54.46%)   0.7379* C   2 s(  0.00%)p 1.00(100.00%)
                                           -0.0000  0.0000  0.0943  0.1913  0.9770
     3. (1.98104) BD ( 1) C   1 - C   6  
                ( 49.46%)   0.7033* C   1 s( 34.60%)p 1.89( 65.40%)
                                            0.0001  0.5882  0.7194 -0.3695  0.0004
                ( 50.54%)   0.7109* C   6 s( 35.73%)p 1.80( 64.27%)
                                            0.0000  0.5977 -0.6894  0.4090 -0.0159
     4. (1.98734) BD ( 1) C   1 - C  19  
                ( 50.15%)   0.7082* C   1 s( 31.68%)p 2.16( 68.32%)
                                           -0.0000  0.5628 -0.0430  0.8122 -0.1474
                ( 49.85%)   0.7060* C  19 s( 25.58%)p 2.91( 74.42%)
                                            0.0001  0.5058  0.0664 -0.8468  0.1510
     5. (1.98976) BD ( 1) C   2 - C   3  
                ( 49.56%)   0.7040* C   2 s( 34.20%)p 1.92( 65.80%)
                                            0.0001  0.5848  0.0187 -0.7962  0.1541
                ( 50.44%)   0.7102* C   3 s( 34.33%)p 1.91( 65.67%)
                                            0.0000  0.5860 -0.0326  0.7943 -0.1570
     6. (1.98876) BD ( 1) C   2 - H  23  
                ( 51.63%)   0.7185* C   2 s( 31.33%)p 2.19( 68.67%)
                                           -0.0001  0.5597 -0.7297  0.3927 -0.0065
[...]
   32       1.2772      -13.0784      14.3556        -5.8327       7.1099
   33      -1.2502       -0.5250      -0.7252        -2.4764       1.2262
   35       0.5802       -1.0124       1.5926        -0.1070       0.6871
   38      -4.9330      -13.5786       8.6456       -12.7416       7.8086
   39       0.4586        0.2329       0.2258        -0.5598       1.0184
   40       0.3580       -0.6829       1.0409        -0.6621       1.0200
   41       4.9589      -10.5396      15.4985        -5.9423      10.9012
   42      -2.4211       -1.6444      -0.7767       -13.8311      11.4100
   62     200.0104       -0.0044     200.0148         0.0043     200.0062
   67       1.8610       -0.2001       2.0611         0.7955       1.0656
 Sum      199.3087      -42.6509     241.9596       -45.0146     244.3233

 Contributions to Isotropic shielding for atom   18 (  -340.8807 ppm):
                         Standard Origin              Atomic Origin
 NLMO      Total    Paramagnetic  Diamagnetic   Paramagnetic  Diamagnetic
    3      -0.4806       -0.5688       0.0881        -1.1377       0.6571
    4       0.1371       -1.0911       1.2282        -0.8406       0.9777
    8       0.3577       -0.2372       0.5950        -0.6749       1.0326
   13       0.7961       -0.2926       1.0887        -0.6527       1.4488
   15     -10.8226      -10.9474       0.1248       -11.5488       0.7262
   16     -10.2408      -10.6824       0.4416       -10.9166       0.6759
   17    -117.6551     -127.7450      10.0899      -127.0993       9.4442
   18     -24.1571      -49.1604      25.0033       -49.2435      25.0864
   20      -0.8301       -0.9977       0.1675        -1.1128       0.2827
   23      -0.3090       -0.4328       0.1239        -1.2808       0.9718
   43      -0.3775       -1.7284       1.3508        -1.3348       0.9573
   45      -0.3605       -1.8027       1.4422        -1.3232       0.9627
   63     271.9356       -0.0054     271.9410        -0.0054     271.9409
   68     -34.4253      -69.5383      35.1129       -69.4387      35.0134
   69    -414.1532     -451.2127      37.0595      -453.7740      39.6207
 Sum     -340.5854     -726.4428     385.8574      -730.3838     389.7983

 Contributions to Isotropic shielding for atom   19 (   218.2405 ppm):
                         Standard Origin              Atomic Origin
 NLMO      Total    Paramagnetic  Diamagnetic   Paramagnetic  Diamagnetic
    1      -1.9439       -1.3477      -0.5962        -2.4263       0.4824
    2      -0.9295       -0.7496      -0.1800        -2.5814       1.6519
    3      -1.0162       -1.4916       0.4755        -1.3145       0.2984
    4       3.7881      -10.9209      14.7090        -3.1658       6.9540
    6      -0.6649       -1.5987       0.9339        -1.7010       1.0362
    8       0.8394       -0.3229       1.1623        -0.3456       1.1850
   15      -0.3715        0.0803      -0.4519        -1.2346       0.8630
   17      -0.4356       -0.2473      -0.1883        -1.1713       0.7357
   18       0.2279        0.2963      -0.0684        -1.2445       1.4724
   43       6.9720       -5.8669      12.8390        -4.4551      11.4271
   44       4.0060        5.3989      -1.3930        -7.1830      11.1890
   45       7.2595       -4.3135      11.5730        -4.1841      11.4436
   64     200.0788       -0.0034     200.0822         0.0033     200.0756
 Sum      217.8101      -21.0869     238.8970       -31.0041     248.8142

 Contributions to Isotropic shielding for atom   20 (    31.6448 ppm):
                         Standard Origin              Atomic Origin
 NLMO      Total    Paramagnetic  Diamagnetic   Paramagnetic  Diamagnetic
   13       0.1256       -0.6444       0.7701        -1.1951       1.3207
   16       2.0252        1.3665       0.6587         1.3051       0.7201
   19       0.0507       -0.5567       0.6074        -1.1054       1.1561
   20       1.3897        0.8297       0.5600         0.7939       0.5958
   23       1.0714        1.1955      -0.1241         0.2329       0.8385
   24      25.8013        0.1487      25.6526         0.3432      25.4581
   36      -0.0895       -1.0729       0.9834        -0.8925       0.8029
   41      -0.1795       -1.1084       0.9289        -0.6876       0.5081
 Sum       30.1949        0.1579      30.0370        -1.2055      31.4004

 Contributions to Isotropic shielding for atom   21 (    31.5713 ppm):
                         Standard Origin              Atomic Origin
 NLMO      Total    Paramagnetic  Diamagnetic   Paramagnetic  Diamagnetic
   13       0.0867       -0.5682       0.6548        -1.2384       1.3251
   19       0.8225        0.5111       0.3114        -0.5302       1.3527
   20       1.0586       -0.2891       1.3477         0.3186       0.7400
   21       0.4737        0.8985      -0.4248        -0.5735       1.0473
   22      26.3154        0.4454      25.8700         0.7774      25.5379
   30      -0.0847       -1.1357       1.0510        -0.8697       0.7850
 Sum       28.6721       -0.1381      28.8102        -2.1158      30.7880

 Contributions to Isotropic shielding for atom   22 (    31.3162 ppm):
                         Standard Origin              Atomic Origin
 NLMO      Total    Paramagnetic  Diamagnetic   Paramagnetic  Diamagnetic
   17      -0.1665       -0.3201       0.1536        -1.0586       0.8921
   18       0.0833       -0.3023       0.3856        -1.3605       1.4438
   23       1.3750       -0.5672       1.9422         0.5988       0.7762
   31       0.7155        1.2528      -0.5373        -0.5038       1.2193
   33       0.6365        1.2244      -0.5879        -0.2944       0.9308
   34      26.1360        0.3098      25.8263         0.6638      25.4723
   37       0.0498       -1.1580       1.2077        -1.0873       1.1370
 Sum       28.8296        0.4393      28.3903        -3.0419      31.8715

 Contributions to Isotropic shielding for atom   23 (    25.9130 ppm):
                         Standard Origin              Atomic Origin
 NLMO      Total    Paramagnetic  Diamagnetic   Paramagnetic  Diamagnetic
    1      -1.4182       -2.7518       1.3336        -1.9963       0.5781
    2       0.7992        1.6078      -0.8086        -2.5619       3.3611
    4      -0.7003        0.7938      -1.4941        -1.7747       1.0744
    5      -2.0314       -1.2246      -0.8068        -2.7373       0.7059
    6      27.0309        0.9463      26.0846         1.5510      25.4799
    9      -0.0810       -0.1475       0.0665        -1.1863       1.1053
   13       0.5535        0.8898      -0.3363        -0.6991       1.2526
   44      -0.1239       -1.3048       1.1809        -0.9048       0.7809
 Sum       24.0288       -1.1908      25.2197       -10.3095      34.3383

 Contributions to Isotropic shielding for atom   24 (    25.3030 ppm):
                         Standard Origin              Atomic Origin
 NLMO      Total    Paramagnetic  Diamagnetic   Paramagnetic  Diamagnetic
    2       1.2487        0.8225       0.4262         0.1843       1.0645
    5      -2.0834       -1.9199      -0.1634        -2.8264       0.7430
    6      -0.1047        0.0808      -0.1855        -1.2341       1.1293
    7      -1.8827       -2.6596       0.7768        -2.6065       0.7237
    8       0.4963        1.3699      -0.8736        -2.3265       2.8229
    9      26.8991        1.1015      25.7976         1.6063      25.2928
   11      -0.1138        0.6613      -0.7751        -1.2214       1.1076
   13       0.4629        0.7854      -0.3226        -0.9153       1.3781
 Sum       24.9224        0.2420      24.6804        -9.3396      34.2620

 Contributions to Isotropic shielding for atom   25 (    25.7384 ppm):
                         Standard Origin              Atomic Origin
 NLMO      Total    Paramagnetic  Diamagnetic   Paramagnetic  Diamagnetic
    2       1.2498       -0.4475       1.6973         0.0213       1.2285
    7      -1.8110       -0.9230      -0.8880        -2.4957       0.6847
    8       0.2012        0.0488       0.1524        -3.1995       3.4007
    9      -0.0500       -1.0055       0.9555        -1.1471       1.0971
   10      -0.8837       -2.5437       1.6600        -1.4391       0.5555
   11      26.5295        1.0747      25.4548         1.3128      25.2167
   14      -0.4931        0.4594      -0.9525        -2.1167       1.6236
 Sum       24.7429       -3.3367      28.0796        -9.0639      33.8068

 Contributions to Isotropic shielding for atom   26 (    31.8139 ppm):
                         Standard Origin              Atomic Origin
 NLMO      Total    Paramagnetic  Diamagnetic   Paramagnetic  Diamagnetic
   19       0.0384        0.2510      -0.2126        -1.5256       1.5640
   21       1.6371       -0.4718       2.1089         0.8918       0.7454
   25       1.0904        1.2463      -0.1559         0.1960       0.8944
   26      26.1103        0.1670      25.9433         0.4057      25.7047
   27       2.0058        1.9056       0.1002         0.1395       1.8663
 Sum       30.8821        3.0982      27.7839         0.1073      30.7748

 Contributions to Isotropic shielding for atom   27 (    31.8279 ppm):
                         Standard Origin              Atomic Origin
 NLMO      Total    Paramagnetic  Diamagnetic   Paramagnetic  Diamagnetic
   19      -0.0226        0.5142      -0.5368        -1.5546       1.5321
   21       1.4291        0.2445       1.1846         0.5900       0.8390
   25       0.9920        1.9881      -0.9961         0.0188       0.9732
   26       2.0380        1.6580       0.3800         0.1587       1.8793
   27      26.0662       -0.0040      26.0702         0.4183      25.6480
   30       0.2181       -0.4654       0.6835        -0.8009       1.0190
 Sum       30.7208        3.9354      26.7854        -1.1697      31.8906

 Contributions to Isotropic shielding for atom   28 (    31.5922 ppm):
                         Standard Origin              Atomic Origin
 NLMO      Total    Paramagnetic  Diamagnetic   Paramagnetic  Diamagnetic
   28       0.6521        1.3779      -0.7258        -0.5206       1.1727
   29      26.2931        0.0888      26.2043         0.7783      25.5148
   30       1.7739        2.0765      -0.3025        -0.0612       1.8351
   32      -0.3511        0.3792      -0.7303        -1.4039       1.0528
 Sum       28.3680        3.9224      24.4456        -1.2073      29.5754

 Contributions to Isotropic shielding for atom   29 (    31.7955 ppm):
                         Standard Origin              Atomic Origin
 NLMO      Total    Paramagnetic  Diamagnetic   Paramagnetic  Diamagnetic
   25       1.2143       -0.3023       1.5167         0.2936       0.9207
   28       1.2442        0.1436       1.1006        -0.1486       1.3928
   29       1.5289        2.3513      -0.8224        -0.3697       1.8986
   30      26.3268        0.3337      25.9931         0.6324      25.6944
 Sum       30.3142        2.5263      27.7880         0.4076      29.9066

 Contributions to Isotropic shielding for atom   30 (    32.0145 ppm):
                         Standard Origin              Atomic Origin
 NLMO      Total    Paramagnetic  Diamagnetic   Paramagnetic  Diamagnetic
   18       0.0122       -0.2586       0.2709        -1.3246       1.3369
   23      -0.1731       -0.0198      -0.1532        -1.2394       1.0663
   33       1.8374       -1.1790       3.0165         1.2472       0.5902
   35       0.7400        1.0180      -0.2780        -0.1349       0.8749
   36      26.1277        0.3259      25.8018         0.4172      25.7105
   37       2.0275        1.5837       0.4439         0.2304       1.7972
   38       0.2422       -0.7874       1.0296         0.0416       0.2007
   40      -0.0171       -1.4741       1.4570        -1.1417       1.1246
 Sum       30.7969       -0.7914      31.5884        -1.9042      32.7011

 Contributions to Isotropic shielding for atom   31 (    31.1591 ppm):
                         Standard Origin              Atomic Origin
 NLMO      Total    Paramagnetic  Diamagnetic   Paramagnetic  Diamagnetic
   33       1.3788        0.1519       1.2269         0.5440       0.8348
   34      -0.1080        0.3686      -0.4767        -1.2293       1.1213
   35       0.3963        2.4363      -2.0399        -0.5097       0.9060
   36       2.0694        1.0128       1.0565         0.2377       1.8317
   37      26.1076       -0.2204      26.3280         0.4611      25.6465
   39      -0.0316       -1.2645       1.2329        -1.2345       1.2029
 Sum       29.8125        2.4847      27.3278        -1.7307      31.5432

 Contributions to Isotropic shielding for atom   32 (    31.6427 ppm):
                         Standard Origin              Atomic Origin
 NLMO      Total    Paramagnetic  Diamagnetic   Paramagnetic  Diamagnetic
   35       1.1439        0.5155       0.6284         0.2550       0.8890
   37      -0.1811        0.7841      -0.9652        -1.3847       1.2036
   38       0.7963        1.4187      -0.6224         0.0213       0.7750
   39      26.2942       -0.3707      26.6649         0.5762      25.7180
   40       1.9607        2.5119      -0.5512         0.1694       1.7913
   42      -0.0445        0.2070      -0.2515        -1.1720       1.1276
 Sum       29.9696        5.0666      24.9031        -1.5349      31.5045

 Contributions to Isotropic shielding for atom   33 (    32.1745 ppm):
                         Standard Origin              Atomic Origin
 NLMO      Total    Paramagnetic  Diamagnetic   Paramagnetic  Diamagnetic
   31      -0.1480        0.1662      -0.3142        -1.0382       0.8903
   35       1.4955       -0.8846       2.3801         0.6451       0.8505
   36      -0.1309        0.3610      -0.4919        -1.2680       1.1371
   38       1.0565        0.0892       0.9673         0.3059       0.7506
   39       1.8945        3.0630      -1.1685         0.1082       1.7862
   40      26.3506        0.1626      26.1881         0.4665      25.8841
   41      -0.0389       -0.1388       0.0999        -1.1515       1.1126
 Sum       30.4794        2.8186      27.6608        -1.9321      32.4115

 Contributions to Isotropic shielding for atom   34 (    32.0669 ppm):
                         Standard Origin              Atomic Origin
 NLMO      Total    Paramagnetic  Diamagnetic   Paramagnetic  Diamagnetic
   32       1.6537       -1.5950       3.2487         1.0632       0.5905
   35       0.2927       -0.8825       1.1752        -0.2006       0.4933
   38       0.9778       -0.3613       1.3392         0.1537       0.8242
   40       0.0197       -0.9195       0.9393        -1.0697       1.0894
   41      26.6224        0.6348      25.9876         0.5965      26.0258
   42       1.6471        1.7691      -0.1220        -0.2106       1.8577
 Sum       31.2134       -1.3545      32.5679         0.3325      30.8809

 Contributions to Isotropic shielding for atom   35 (    31.6266 ppm):
                         Standard Origin              Atomic Origin
 NLMO      Total    Paramagnetic  Diamagnetic   Paramagnetic  Diamagnetic
   32       0.8653        0.8664      -0.0011        -0.2392       1.1045
   38       0.3579        2.0121      -1.6542        -0.4992       0.8571
   39       0.0502       -0.0785       0.1287        -1.0738       1.1240
   41       1.7765        0.8946       0.8819         0.0798       1.6966
   42      26.3600        0.1031      26.2569         0.7903      25.5697
 Sum       29.4098        3.7976      25.6123        -0.9421      30.3519

 Contributions to Isotropic shielding for atom   36 (    31.2777 ppm):
                         Standard Origin              Atomic Origin
 NLMO      Total    Paramagnetic  Diamagnetic   Paramagnetic  Diamagnetic
    2      -0.7927       -0.5375      -0.2552        -1.6855       0.8928
    4       1.8769       -0.8269       2.7037         1.0104       0.8665
    8       0.5591       -0.2277       0.7868        -0.5372       1.0963
   15      -0.2744        0.2101      -0.4845        -1.1928       0.9184
   18       0.0245        0.2481      -0.2236        -1.2681       1.2925
   43      25.7492        0.2722      25.4770         0.3471      25.4021
   44       1.7984        2.3830      -0.5846        -0.0853       1.8837
   45       2.2138        0.2978       1.9160         0.3888       1.8250
 Sum       31.1549        1.8191      29.3357        -3.0225      34.1773

 Contributions to Isotropic shielding for atom   37 (    31.0104 ppm):
                         Standard Origin              Atomic Origin
 NLMO      Total    Paramagnetic  Diamagnetic   Paramagnetic  Diamagnetic
    1      -0.9968        0.2103      -1.2071        -1.9042       0.9074
    2      -0.7446        0.0686      -0.8132        -2.3529       1.6083
    4       1.0143        0.9152       0.0991         0.2541       0.7602
    6      -0.0065       -1.4516       1.4451        -0.9432       0.9368
   18       0.0626        0.1327      -0.0701        -0.9446       1.0072
   43       2.0424        2.0688      -0.0265         0.0602       1.9822
   44      26.2578       -0.1535      26.4113         0.5251      25.7327
   45       2.1308        2.3728      -0.2420         0.1637       1.9671
 Sum       29.7600        4.1634      25.5967        -5.1419      34.9019

 Contributions to Isotropic shielding for atom   38 (    30.7550 ppm):
                         Standard Origin              Atomic Origin
 NLMO      Total    Paramagnetic  Diamagnetic   Paramagnetic  Diamagnetic
    2      -0.8406       -0.4936      -0.3470        -1.7616       0.9209
    4       1.8337       -0.5728       2.4065         0.9575       0.8762
    8       0.5722       -0.2005       0.7727        -0.5062       1.0783
   15      -0.3196        0.1551      -0.4747        -1.2226       0.9030
   17      -0.4454       -0.2973      -0.1480        -1.0125       0.5671
   18       0.1661        0.2361      -0.0700        -1.1682       1.3343
   43       2.2248        0.2448       1.9799         0.4194       1.8053
   44       1.7867        2.5834      -0.7966        -0.0890       1.8758
   45      25.6645        0.2316      25.4329         0.3434      25.3211
 Sum       30.6423        1.8867      28.7557        -4.0396      34.6820
 
 1\1\GINC-GNOSIE-MM\SP\RHF\STO-3G\C16H19N1O2\MBENIDD\30-Apr-2026\0\\# n
 mr=giao hf/sto-3g pop=nbo\\Title Card Required\\0,1\C,0,0.,0.,0.\C,0,1
 .4071,0.,0.\C,0,2.1273,1.1942,0.\C,0,1.4526,2.4101,-0.0114\C,0,0.0583,
 2.4333,-0.0327\C,0,-0.6753,1.2369,-0.0111\C,0,-2.1543,1.3514,0.0296\O,
 0,-0.5016,3.6854,-0.0539\C,0,-1.8547,3.6891,-0.5248\C,0,-2.7046,2.7376
 ,0.3045\C,0,-2.377,5.117,-0.407\C,0,-3.8436,5.1859,-0.8095\N,0,-4.6973
 ,4.2384,-0.1042\C,0,-4.192,2.8549,-0.078\C,0,-5.1139,2.2041,0.962\C,0,
 -5.6437,3.3453,1.8269\C,0,-4.9971,4.6046,1.2768\O,0,-2.8779,0.3712,-0.
 1148\C,0,-0.7104,-1.326,0.0214\H,0,-2.562,2.9289,1.3773\H,0,-1.8526,3.
 403,-1.5875\H,0,-4.3599,2.3883,-1.0572\H,0,1.9558,-0.9407,0.0081\H,0,3
 .2144,1.1746,0.0078\H,0,2.0123,3.342,-0.0143\H,0,-2.2331,5.489,0.6152\
 H,0,-1.7819,5.7811,-1.0459\H,0,-4.2197,6.2075,-0.6768\H,0,-3.9234,4.97
 99,-1.8846\H,0,-4.6107,1.451,1.5766\H,0,-5.957,1.7097,0.4638\H,0,-6.73
 54,3.3985,1.7416\H,0,-5.3976,3.1983,2.8835\H,0,-4.0955,4.8406,1.8536\H
 ,0,-5.6772,5.4602,1.3366\H,0,-1.3539,-1.4037,0.9034\H,0,-0.0011,-2.159
 7,0.0711\H,0,-1.2992,-1.4601,-0.8913\\Version=EM64L-G16RevB.01\State=1
 -A\HF=-811.0608629\RMSD=7.658e-09\Dipole=0.3182638,0.2685282,0.1724556
 \Quadrupole=-1.6139259,0.1828722,1.4310537,-2.997859,-1.907531,-0.1576
 051\PG=C01 [X(C16H19N1O2)]\\@


 THE WISE MAN HAS THE POWER TO REASON AWAY
 WHAT A FOOL BELIEVES.
                     - DOOBIE BROTHERS
 Job cpu time:       0 days  0 hours  3 minutes 44.4 seconds.
 Elapsed time:       0 days  0 hours  2 minutes  4.5 seconds.
 File lengths (MBytes):  RWF=     14 Int=      0 D2E=      0 Chk=      2 Scr=      1
 Normal termination of Gaussian 16 at Thu Apr 30 09:15:30 2026.
