 Entering Gaussian System, Link 0=g16
 Input=1_elaeocarpine_c_3.gjf
 Output=1_elaeocarpine_c_3.log
 Initial command:
 /opt/gaussian/g16/l1.exe "/home/mbenidd/Bureau/Elaeocarpines/HF_NMR/Elaeocarpine/1_elaeocarpine_c_3/Gau-12782.inp" -scrdir="/home/mbenidd/Bureau/Elaeocarpines/HF_NMR/Elaeocarpine/1_elaeocarpine_c_3/"
 Entering Link 1 = /opt/gaussian/g16/l1.exe PID=     12784.
  
 Copyright (c) 1988-2017, Gaussian, Inc.  All Rights Reserved.
  
 This is part of the Gaussian(R) 16 program.  It is based on
 the Gaussian(R) 09 system (copyright 2009, Gaussian, Inc.),
 the Gaussian(R) 03 system (copyright 2003, Gaussian, Inc.),
 the Gaussian(R) 98 system (copyright 1998, Gaussian, Inc.),
 the Gaussian(R) 94 system (copyright 1995, Gaussian, Inc.),
 the Gaussian 92(TM) system (copyright 1992, Gaussian, Inc.),
 the Gaussian 90(TM) system (copyright 1990, Gaussian, Inc.),
 the Gaussian 88(TM) system (copyright 1988, Gaussian, Inc.),
 the Gaussian 86(TM) system (copyright 1986, Carnegie Mellon
 University), and the Gaussian 82(TM) system (copyright 1983,
 Carnegie Mellon University). Gaussian is a federally registered
 trademark of Gaussian, Inc.
  
 This software contains proprietary and confidential information,
 including trade secrets, belonging to Gaussian, Inc.
  
 This software is provided under written license and may be
 used, copied, transmitted, or stored only in accord with that
 written license.
  
 The following legend is applicable only to US Government
 contracts under FAR:
  
                    RESTRICTED RIGHTS LEGEND
  
 Use, reproduction and disclosure by the US Government is
 subject to restrictions as set forth in subparagraphs (a)
 and (c) of the Commercial Computer Software - Restricted
 Rights clause in FAR 52.227-19.
  
 Gaussian, Inc.
 340 Quinnipiac St., Bldg. 40, Wallingford CT 06492
  
  
 ---------------------------------------------------------------
 Warning -- This program may not be used in any manner that
 competes with the business of Gaussian, Inc. or will provide
 assistance to any competitor of Gaussian, Inc.  The licensee
 of this program is prohibited from giving any competitor of
 Gaussian, Inc. access to this program.  By using this program,
 the user acknowledges that Gaussian, Inc. is engaged in the
 business of creating and licensing software in the field of
 computational chemistry and represents and warrants to the
 licensee that it is not a competitor of Gaussian, Inc. and that
 it will not use this program in any manner prohibited above.
 ---------------------------------------------------------------
  

 Cite this work as:
 Gaussian 16, Revision B.01,
 M. J. Frisch, G. W. Trucks, H. B. Schlegel, G. E. Scuseria, 
 M. A. Robb, J. R. Cheeseman, G. Scalmani, V. Barone, 
 G. A. Petersson, H. Nakatsuji, X. Li, M. Caricato, A. V. Marenich, 
 J. Bloino, B. G. Janesko, R. Gomperts, B. Mennucci, H. P. Hratchian, 
 J. V. Ortiz, A. F. Izmaylov, J. L. Sonnenberg, D. Williams-Young, 
 F. Ding, F. Lipparini, F. Egidi, J. Goings, B. Peng, A. Petrone, 
 T. Henderson, D. Ranasinghe, V. G. Zakrzewski, J. Gao, N. Rega, 
 G. Zheng, W. Liang, M. Hada, M. Ehara, K. Toyota, R. Fukuda, 
 J. Hasegawa, M. Ishida, T. Nakajima, Y. Honda, O. Kitao, H. Nakai, 
 T. Vreven, K. Throssell, J. A. Montgomery, Jr., J. E. Peralta, 
 F. Ogliaro, M. J. Bearpark, J. J. Heyd, E. N. Brothers, K. N. Kudin, 
 V. N. Staroverov, T. A. Keith, R. Kobayashi, J. Normand, 
 K. Raghavachari, A. P. Rendell, J. C. Burant, S. S. Iyengar, 
 J. Tomasi, M. Cossi, J. M. Millam, M. Klene, C. Adamo, R. Cammi, 
 J. W. Ochterski, R. L. Martin, K. Morokuma, O. Farkas, 
 J. B. Foresman, and D. J. Fox, Gaussian, Inc., Wallingford CT, 2016.
 
 ******************************************
 Gaussian 16:  EM64L-G16RevB.01 20-Dec-2017
                30-Apr-2026 
 ******************************************
 %nprocshared=4
 Will use up to    4 processors via shared memory.
 ----------------------------
 # nmr=giao hf/sto-3g pop=nbo
 ----------------------------
 1/38=1,172=1/1;
 2/12=2,17=6,18=5,40=1/2;
 3/6=3,11=9,25=1,30=1/1,2,3,8;
 4//1;
 5/5=2,38=5/2;
 8/6=1,10=90,11=11/1;
 10/13=100,45=16/2;
 6/7=2,8=2,9=2,10=2,28=1,40=1,64=1/1,7;
 99/9=1/99;
 -------------------
 Title Card Required
 -------------------
 Symbolic Z-matrix:
 Charge =  0 Multiplicity = 1
 C                     0.        0.        0. 
 C                     1.4071    0.        0. 
 C                     2.1279    1.1942    0. 
 C                     1.4542    2.4107   -0.0118 
 C                     0.0601    2.4341   -0.033 
 C                    -0.6746    1.2369   -0.0105 
 C                    -2.1543    1.3526    0.035 
 O                    -0.5006    3.6875   -0.0571 
 C                    -1.8518    3.6852   -0.5415 
 C                    -2.6942    2.7408    0.3073 
 C                    -2.3724    5.1281   -0.5261 
 C                    -3.6318    5.2905    0.32 
 N                    -4.6433    4.3067   -0.0583 
 C                    -4.1713    2.9008   -0.0591 
 C                    -5.1318    2.1539    0.8694 
 C                    -6.3943    2.9894    0.8091 
 C                    -5.8417    4.3994    0.7861 
 O                    -2.8815    0.3738   -0.0971 
 C                    -0.7112   -1.3255    0.0212 
 H                    -2.5385    2.933     1.3784 
 H                    -1.8261    3.3559   -1.5918 
 H                    -4.3309    2.5229   -1.0788 
 H                     1.9557   -0.9408    0.0079 
 H                     3.2149    1.174     0.0074 
 H                     2.0141    3.3423   -0.016 
 H                    -1.6028    5.8245   -0.1722 
 H                    -2.6041    5.4258   -1.5576 
 H                    -3.3686    5.2024    1.3823 
 H                    -4.0278    6.3023    0.172 
 H                    -4.7517    2.1295    1.8981 
 H                    -5.3197    1.1258    0.5461 
 H                    -7.0531    2.8098    1.6635 
 H                    -6.9511    2.7754   -0.1112 
 H                    -5.593     4.7023    1.8113 
 H                    -6.5636    5.1144    0.38 
 H                    -1.3493   -1.4056    0.9069 
 H                    -0.0022   -2.1599    0.0633 
 H                    -1.3058   -1.456    -0.8882 
 
                          Input orientation:                          
 ---------------------------------------------------------------------
 Center     Atomic      Atomic             Coordinates (Angstroms)
 Number     Number       Type             X           Y           Z
 ---------------------------------------------------------------------
      1          6           0        0.000000    0.000000    0.000000
      2          6           0        1.407100    0.000000    0.000000
      3          6           0        2.127900    1.194200    0.000000
      4          6           0        1.454200    2.410700   -0.011800
      5          6           0        0.060100    2.434100   -0.033000
      6          6           0       -0.674600    1.236900   -0.010500
      7          6           0       -2.154300    1.352600    0.035000
      8          8           0       -0.500600    3.687500   -0.057100
      9          6           0       -1.851800    3.685200   -0.541500
     10          6           0       -2.694200    2.740800    0.307300
     11          6           0       -2.372400    5.128100   -0.526100
     12          6           0       -3.631800    5.290500    0.320000
     13          7           0       -4.643300    4.306700   -0.058300
     14          6           0       -4.171300    2.900800   -0.059100
     15          6           0       -5.131800    2.153900    0.869400
     16          6           0       -6.394300    2.989400    0.809100
     17          6           0       -5.841700    4.399400    0.786100
     18          8           0       -2.881500    0.373800   -0.097100
     19          6           0       -0.711200   -1.325500    0.021200
     20          1           0       -2.538500    2.933000    1.378400
     21          1           0       -1.826100    3.355900   -1.591800
     22          1           0       -4.330900    2.522900   -1.078800
     23          1           0        1.955700   -0.940800    0.007900
     24          1           0        3.214900    1.174000    0.007400
     25          1           0        2.014100    3.342300   -0.016000
     26          1           0       -1.602800    5.824500   -0.172200
     27          1           0       -2.604100    5.425800   -1.557600
     28          1           0       -3.368600    5.202400    1.382300
     29          1           0       -4.027800    6.302300    0.172000
     30          1           0       -4.751700    2.129500    1.898100
     31          1           0       -5.319700    1.125800    0.546100
     32          1           0       -7.053100    2.809800    1.663500
     33          1           0       -6.951100    2.775400   -0.111200
     34          1           0       -5.593000    4.702300    1.811300
     35          1           0       -6.563600    5.114400    0.380000
     36          1           0       -1.349300   -1.405600    0.906900
     37          1           0       -0.002200   -2.159900    0.063300
     38          1           0       -1.305800   -1.456000   -0.888200
 ---------------------------------------------------------------------
                    Distance matrix (angstroms):
                    1          2          3          4          5
     1  C    0.000000
     2  C    1.407100   0.000000
     3  C    2.440097   1.394871   0.000000
     4  C    2.815371   2.411189   1.390641   0.000000
     5  C    2.435065   2.782147   2.411273   1.394458   0.000000
     6  C    1.408942   2.421468   2.802845   2.430966   1.404841
     7  C    2.543965   3.809767   4.285272   3.760723   2.465326
     8  O    3.721763   4.152136   3.623371   2.335276   1.373309
     9  C    4.159698   4.949177   4.726131   3.582537   2.340766
    10  C    3.855533   4.942376   5.073367   4.173729   2.792139
    11  C    5.674722   6.392090   6.000421   4.721402   3.663037
    12  C    6.425088   7.313160   7.075042   5.854121   4.681213
    13  N    6.333348   7.426870   7.452530   6.385647   5.062533
    14  C    5.081130   6.287820   6.526553   5.647007   4.257139
    15  C    5.632984   6.939190   7.374288   6.649651   5.277183
    16  C    7.104803   8.393628   8.746730   7.912504   6.532746
    17  C    7.355143   8.515737   8.625879   7.604060   6.274119
    18  O    2.907266   4.305955   5.077063   4.791089   3.591929
    19  C    1.504395   2.498919   3.796028   4.318476   3.838285
    20  H    4.116608   5.105902   5.167079   4.259942   2.998945
    21  H    4.138905   4.924376   4.779214   3.761671   2.614828
    22  H    5.126941   6.360305   6.681718   5.883745   4.514694
    23  H    2.170237   1.089096   2.141948   3.388870   3.871036
    24  H    3.422559   2.155568   1.087213   2.151711   3.397388
    25  H    3.902284   3.397010   2.151172   1.086915   2.154816
    26  H    6.043461   6.558502   5.948735   4.585303   3.778813
    27  H    6.216652   6.924966   6.536389   5.286788   4.286331
    28  H    6.350054   7.196043   6.941753   5.744258   4.628449
    29  H    7.481426   8.323864   8.000932   6.725374   5.631689
    30  H    5.542220   6.787369   7.197671   6.499230   5.193780
    31  H    5.464875   6.842185   7.467908   6.917221   5.566799
    32  H    7.772286   9.068472   9.469327   8.679865   7.322355
    33  H    7.485519   8.807651   9.216333   8.413795   7.019938
    34  H    7.528219   8.625186   8.671786   7.631393   6.364253
    35  H    8.329606   9.478056   9.542250   8.470456   7.157372
    36  H    2.149137   3.224270   4.435352   4.823667   4.196798
    37  H    2.160828   2.579787   3.973829   4.797617   4.595432
    38  H    2.148010   3.204475   4.427500   4.830843   4.210692
                    6          7          8          9         10
     6  C    0.000000
     7  C    1.484914   0.000000
     8  O    2.457211   2.862685   0.000000
     9  C    2.768020   2.421752   1.435406   0.000000
    10  C    2.538010   1.514179   2.416797   1.523808   0.000000
    11  C    4.276658   3.823193   2.408096   1.534021   2.548983
    12  C    5.028512   4.215601   3.537828   2.547071   2.716657
    13  N    5.017623   3.864005   4.188720   2.900382   2.526796
    14  C    3.872704   2.544419   3.754056   2.495611   1.530253
    15  C    4.634840   3.194341   4.965717   3.885089   2.569494
    16  C    6.038043   4.610417   5.997778   4.789840   3.742238
    17  C    6.110229   4.841907   5.453910   4.265197   3.589841
    18  O    2.371255   1.226507   4.080551   3.496161   2.408591
    19  C    2.562857   3.042195   5.018033   5.169595   4.533094
    20  H    2.877485   2.109502   2.604413   2.173333   1.099290
    21  H    2.883856   2.601424   2.054802   1.101013   2.176816
    22  H    4.020397   2.710672   4.131750   2.790263   2.155816
    23  H    3.414849   4.706646   5.240114   6.016542   5.938467
    24  H    3.890050   5.372241   4.486288   5.681449   6.120643
    25  H    3.414945   4.619206   2.538615   3.916492   4.757564
    26  H    4.683351   4.510540   2.407252   2.185175   3.306097
    27  H    4.864501   4.396550   3.114145   2.151303   3.270351
    28  H    4.992266   4.255667   3.548552   2.881594   2.769461
    29  H    6.077461   5.294176   4.396681   3.477538   3.805401
    30  H    4.589361   3.289560   4.931736   4.096495   2.671636
    31  H    4.679648   3.214408   5.490891   4.445192   3.091683
    32  H    6.779495   5.364111   6.831257   5.716806   4.565528
    33  H    6.463093   5.005499   6.514891   5.197668   4.277562
    34  H    6.286383   5.118632   5.518449   4.535057   3.809533
    35  H    7.061715   5.806211   6.243963   5.009275   4.539991
    36  H    2.877438   3.002649   5.252548   5.316636   4.400103
    37  H    3.463498   4.119465   5.869837   6.160519   5.596719
    38  H    2.901807   3.075790   5.272065   5.181723   4.579302
                   11         12         13         14         15
    11  C    0.000000
    12  C    1.525892   0.000000
    13  N    2.459781   1.460858   0.000000
    14  C    2.900861   2.479000   1.483017   0.000000
    15  C    4.290405   3.519957   2.394537   1.530533   0.000000
    16  C    4.746839   3.628455   2.356621   2.388169   1.515125
    17  C    3.780068   2.427955   1.468934   2.397999   2.356516
    18  O    4.800687   4.991078   4.309657   2.837386   3.027661
    19  C    6.686410   7.238138   6.869455   5.462632   5.689233
    20  H    2.910872   2.805944   2.895055   2.175656   2.755228
    21  H    2.138891   3.264691   3.345483   2.838353   4.293013
    22  H    3.305793   3.178835   2.078691   1.099122   2.138477
    23  H    7.473229   8.375360   8.431337   7.232047   7.781517
    24  H    6.865672   7.995035   8.459872   7.585658   8.448115
    25  H    4.763472   5.982020   6.727022   6.201286   7.297953
    26  H    1.096587   2.155054   3.400196   3.893328   5.197314
    27  H    1.098318   2.144727   2.767422   3.328249   4.794260
    28  H    2.154049   1.097960   2.121902   2.831841   3.558833
    29  H    2.146261   1.096567   2.101023   3.412360   4.349069
    30  H    4.530940   3.706278   2.929070   2.182292   1.096948
    31  H    5.084741   4.499428   3.307709   2.199026   1.093992
    32  H    5.663728   4.434429   3.318500   3.358631   2.179953
    33  H    5.164478   4.186814   2.770130   2.783115   2.158168
    34  H    4.002126   2.533034   2.133971   2.960579   2.755762
    35  H    4.288049   2.937697   2.128858   3.288759   3.324774
    36  H    6.766791   7.098733   6.664264   5.238504   5.194108
    37  H    7.686364   8.291463   7.960623   6.557977   6.750664
    38  H    6.679755   7.237768   6.710913   5.280171   5.546063
                   16         17         18         19         20
    16  C    0.000000
    17  C    1.514594   0.000000
    18  O    4.472396   5.074276   0.000000
    19  C    7.178912   7.725386   2.758952   0.000000
    20  H    3.898009   3.662278   2.973929   4.828648   0.000000
    21  H    5.173693   4.782086   3.498702   5.075458   3.083577
    22  H    2.835385   3.046575   2.771845   5.396518   3.068992
    23  H    9.263417   9.482762   5.013751   2.694536   6.089534
    24  H    9.811989   9.645288   6.149580   4.654240   6.170521
    25  H    8.456153   7.967083   5.725860   5.405275   4.778917
    26  H    5.653248   4.573568   5.599182   7.207972   3.411842
    27  H    5.089492   4.126558   5.266186   7.187192   3.852071
    28  H    3.792201   2.667674   5.073585   7.178290   2.416456
    29  H    4.120865   2.699700   6.044297   8.319009   3.876287
    30  H    2.150229   2.752651   3.249762   5.637856   2.411214
    31  H    2.167242   3.323634   2.631355   5.246205   3.419615
    32  H    1.093743   2.182693   5.141600   7.747100   4.525271
    33  H    1.096711   2.161780   4.725413   7.468016   4.659913
    34  H    2.140213   1.097559   5.452535   7.960578   3.556374
    35  H    2.174492   1.094204   6.021526   8.709284   4.685802
    36  H    6.691608   7.341272   2.553804   1.094556   4.523269
    37  H    8.241993   8.811732   3.838715   1.095754   5.839515
    38  H    6.966724   7.593641   2.541031   1.094344   5.091203
                   21         22         23         24         25
    21  H    0.000000
    22  H    2.689067   0.000000
    23  H    5.943289   7.259440   0.000000
    24  H    5.720997   7.741993   2.461293   0.000000
    25  H    4.150960   6.485367   4.283565   2.478708   0.000000
    26  H    2.856416   4.377787   7.646218   6.698480   4.389497
    27  H    2.211547   3.411439   7.985998   7.374808   5.295779
    28  H    3.825459   3.763344   8.244759   7.839696   5.864186
    29  H    4.079185   3.992522   9.396366   8.875993   6.730639
    30  H    4.716206   3.032123   7.615039   8.243448   7.135174
    31  H    4.663604   2.360066   7.582344   8.551720   7.682021
    32  H    6.181968   3.874648   9.897802  10.528548   9.236796
    33  H    5.366077   2.804542   9.651705  10.292041   8.983610
    34  H    5.251992   3.833453   9.595817   9.658264   7.940818
    35  H    5.424410   3.718725  10.458603  10.549154   8.767787
    36  H    5.398400   5.316583   3.456482   5.319338   5.891244
    37  H    6.040697   6.478476   2.307086   4.633330   5.860543
    38  H    4.890823   5.001920   3.421375   5.306197   5.899674
                   26         27         28         29         30
    26  H    0.000000
    27  H    1.755248   0.000000
    28  H    2.433419   3.045879   0.000000
    29  H    2.495474   2.405554   1.763278   0.000000
    30  H    5.277759   5.236377   3.409066   4.573370   0.000000
    31  H    6.033994   5.503639   4.596160   5.348374   1.777060
    32  H    6.493380   6.083793   4.402175   4.855365   2.411283
    33  H    6.156707   5.292741   4.577683   4.589652   3.048251
    34  H    4.595139   4.561410   2.319935   2.774375   2.708250
    35  H    5.041696   4.419152   3.349683   2.807962   3.807524
    36  H    7.314579   7.369960   6.925983   8.193056   5.005570
    37  H    8.146657   8.181690   8.202187   9.371558   6.657567
    38  H    7.321649   7.035116   7.331071   8.290026   5.700307
                   31         32         33         34         35
    31  H    0.000000
    32  H    2.662539   0.000000
    33  H    2.411367   1.777962   0.000000
    34  H    3.803522   2.394847   3.041938   0.000000
    35  H    4.181364   2.682939   2.421230   1.777782   0.000000
    36  H    4.722525   7.132698   7.063813   7.492221   8.365223
    37  H    6.269348   8.773468   8.524954   9.022324   9.801414
    38  H    4.983403   7.598663   7.097738   7.974462   8.510167
                   36         37         38
    36  H    0.000000
    37  H    1.759349   0.000000
    38  H    1.796334   1.760739   0.000000
 Stoichiometry    C16H19NO2
 Framework group  C1[X(C16H19NO2)]
 Deg. of freedom   108
 Full point group                 C1      NOp   1
 Largest Abelian subgroup         C1      NOp   1
 Largest concise Abelian subgroup C1      NOp   1
                         Standard orientation:                         
 ---------------------------------------------------------------------
 Center     Atomic      Atomic             Coordinates (Angstroms)
 Number     Number       Type             X           Y           Z
 ---------------------------------------------------------------------
      1          6           0        3.040436    1.044117    0.009052
      2          6           0        4.263005    0.366711   -0.153361
      3          6           0        4.304111   -1.018677   -0.310444
      4          6           0        3.123502   -1.753418   -0.296250
      5          6           0        1.902259   -1.104956   -0.115768
      6          6           0        1.848957    0.292215    0.020799
      7          6           0        0.503405    0.908987    0.139324
      8          8           0        0.802617   -1.927540   -0.104706
      9          6           0       -0.336067   -1.328482    0.531625
     10          6           0       -0.665137   -0.008124   -0.154201
     11          6           0       -1.496512   -2.330787    0.487175
     12          6           0       -2.730043   -1.772360   -0.216321
     13          7           0       -3.100124   -0.471701    0.336340
     14          6           0       -2.001067    0.523439    0.369636
     15          6           0       -2.535149    1.737715   -0.393792
     16          6           0       -4.037226    1.612371   -0.239982
     17          6           0       -4.246381    0.117777   -0.368200
     18          8           0        0.360513    2.095590    0.414781
     19          6           0        3.070512    2.541391    0.152132
     20          1           0       -0.699631   -0.132044   -1.245940
     21          1           0       -0.078251   -1.170385    1.590287
     22          1           0       -1.882595    0.816377    1.422356
     23          1           0        5.200100    0.921521   -0.166307
     24          1           0        5.257934   -1.523600   -0.441996
     25          1           0        3.153781   -2.833473   -0.414350
     26          1           0       -1.194057   -3.267781    0.004406
     27          1           0       -1.770900   -2.591888    1.518116
     28          1           0       -2.533165   -1.705277   -1.294401
     29          1           0       -3.559453   -2.477825   -0.086489
     30          1           0       -2.265544    1.689424   -1.455995
     31          1           0       -2.171814    2.686463    0.012021
     32          1           0       -4.581925    2.179949   -0.999870
     33          1           0       -4.351191    1.964980    0.749901
     34          1           0       -4.251076   -0.152235   -1.432017
     35          1           0       -5.195302   -0.201192    0.073490
     36          1           0        2.492834    3.015939   -0.647332
     37          1           0        4.092422    2.930236    0.080184
     38          1           0        2.682019    2.840795    1.130405
 ---------------------------------------------------------------------
 Rotational constants (GHZ):           0.8174192           0.2614086           0.2042495
 Standard basis: STO-3G (5D, 7F)
 There are   114 symmetry adapted cartesian basis functions of A   symmetry.
 There are   114 symmetry adapted basis functions of A   symmetry.
   114 basis functions,   342 primitive gaussians,   114 cartesian basis functions
    69 alpha electrons       69 beta electrons
       nuclear repulsion energy      1482.5574039134 Hartrees.
 NAtoms=   38 NActive=   38 NUniq=   38 SFac= 1.00D+00 NAtFMM=   60 NAOKFM=F Big=F
 Integral buffers will be    131072 words long.
 Raffenetti 1 integral format.
 Two-electron integral symmetry is turned on.
 One-electron integrals computed using PRISM.
 NBasis=   114 RedAO= T EigKep=  1.74D-01  NBF=   114
 NBsUse=   114 1.00D-06 EigRej= -1.00D+00 NBFU=   114
 ExpMin= 1.69D-01 ExpMax= 1.31D+02 ExpMxC= 1.31D+02 IAcc=3 IRadAn=         5 AccDes= 0.00D+00
 Harris functional with IExCor=  205 and IRadAn=       5 diagonalized for initial guess.
 HarFok:  IExCor=  205 AccDes= 0.00D+00 IRadAn=         5 IDoV= 1 UseB2=F ITyADJ=14
 ICtDFT=  3500011 ScaDFX=  1.000000  1.000000  1.000000  1.000000
 FoFCou: FMM=F IPFlag=           0 FMFlag=      100000 FMFlg1=           0
         NFxFlg=           0 DoJE=T BraDBF=F KetDBF=T FulRan=T
         wScrn=  0.000000 ICntrl=       500 IOpCl=  0 I1Cent=   200000004 NGrid=           0
         NMat0=    1 NMatS0=      1 NMatT0=    0 NMatD0=    1 NMtDS0=    0 NMtDT0=    0
 Petite list used in FoFCou.
 Requested convergence on RMS density matrix=1.00D-08 within 128 cycles.
 Requested convergence on MAX density matrix=1.00D-06.
 Requested convergence on             energy=1.00D-06.
 No special actions if energy rises.
 Integral accuracy reduced to 1.0D-05 until final iterations.
 Initial convergence to 1.0D-05 achieved.  Increase integral accuracy.
 SCF Done:  E(RHF) =  -811.056909112     A.U. after   17 cycles
            NFock= 17  Conv=0.65D-08     -V/T= 2.0093
 Range of M.O.s used for correlation:     1   114
 NBasis=   114 NAE=    69 NBE=    69 NFC=     0 NFV=     0
 NROrb=    114 NOA=    69 NOB=    69 NVA=    45 NVB=    45
          Differentiating once with respect to magnetic field using GIAOs.
          Electric field/nuclear overlap derivatives assumed to be zero.
 FoFCou: FMM=F IPFlag=           0 FMFlag=      100000 FMFlg1=           0
         NFxFlg=           0 DoJE=F BraDBF=F KetDBF=T FulRan=T
         wScrn=  0.000000 ICntrl=      6100 IOpCl=  0 I1Cent=           7 NGrid=          38
         NMat0=    1 NMatS0=      1 NMatT0=    0 NMatD0=    1 NMtDS0=    0 NMtDT0=    0
 Symmetry not used in FoFCou.
 FoFJK:  IHMeth= 1 ICntrl=    6127 DoSepK=F KAlg= 0 I1Cent=           0 FoldK=F
 IRaf=         1 NMat=       1 IRICut=       1 DoRegI=T DoRafI=F ISym2E= 0 IDoP0=0 IntGTp=1.
          There are     3 degrees of freedom in the 1st order CPHF.  IDoFFX=0 NUNeed=     3.
      3 vectors produced by pass  0 Test12= 1.04D-13 3.33D-08 XBig12= 2.94D+01 1.62D+00.
 AX will form     3 AO Fock derivatives at one time.
      3 vectors produced by pass  1 Test12= 1.04D-13 3.33D-08 XBig12= 1.81D-01 2.44D-01.
      3 vectors produced by pass  2 Test12= 1.04D-13 3.33D-08 XBig12= 2.99D-03 1.90D-02.
      3 vectors produced by pass  3 Test12= 1.04D-13 3.33D-08 XBig12= 9.10D-05 1.93D-03.
      3 vectors produced by pass  4 Test12= 1.04D-13 3.33D-08 XBig12= 1.16D-06 1.28D-04.
      3 vectors produced by pass  5 Test12= 1.04D-13 3.33D-08 XBig12= 1.38D-08 1.77D-05.
      3 vectors produced by pass  6 Test12= 1.04D-13 3.33D-08 XBig12= 2.52D-10 2.91D-06.
      3 vectors produced by pass  7 Test12= 1.04D-13 3.33D-08 XBig12= 3.48D-12 2.43D-07.
      1 vectors produced by pass  8 Test12= 1.04D-13 3.33D-08 XBig12= 6.67D-14 4.94D-08.
 InvSVY:  IOpt=1 It=  1 EMax= 4.44D-16
 Solved reduced A of dimension    25 with     3 vectors.
 Calculating GIAO nuclear magnetic shielding tensors.
 SCF GIAO Magnetic shielding tensor (ppm):
      1  C    Isotropic =   114.0741   Anisotropy =   169.0104
   XX=    82.6383   YX=    -8.8198   ZX=    10.4434
   XY=   -12.7896   YY=    35.2637   ZY=   -17.4540
   XZ=     9.3227   YZ=   -17.5937   ZZ=   224.3203
   Eigenvalues:    31.7228    83.7518   226.7477
      2  C    Isotropic =   123.8639   Anisotropy =   142.9337
   XX=    58.0953   YX=   -39.8004   ZX=     8.0632
   XY=   -35.2537   YY=    96.0847   ZY=   -10.6988
   XZ=     9.7395   YZ=    -9.0553   ZZ=   217.4117
   Eigenvalues:    34.9973   117.4413   219.1530
      3  C    Isotropic =   117.2215   Anisotropy =   168.4109
   XX=    40.6995   YX=    32.1371   ZX=    18.1308
   XY=    34.0082   YY=    85.1086   ZY=   -18.8837
   XZ=    19.9269   YZ=   -18.6710   ZZ=   225.8566
   Eigenvalues:    19.8702   102.2990   229.4955
      4  C    Isotropic =   131.4709   Anisotropy =   145.4627
   XX=   117.4482   YX=     1.7906   ZX=    10.2945
   XY=     4.5757   YY=    51.1288   ZY=   -20.0307
   XZ=    11.2592   YZ=   -13.8861   ZZ=   225.8356
   Eigenvalues:    49.2370   116.7296   228.4461
      5  C    Isotropic =   103.6468   Anisotropy =   132.7703
   XX=    57.0055   YX=   -18.4526   ZX=    11.9741
   XY=    -9.2377   YY=    63.3077   ZY=   -10.8831
   XZ=     8.8096   YZ=    -6.3322   ZZ=   190.6273
   Eigenvalues:    45.9027    72.8774   192.1604
      6  C    Isotropic =   130.6328   Anisotropy =   146.8059
   XX=    73.8267   YX=    17.1998   ZX=    11.2364
   XY=    16.1291   YY=    92.4421   ZY=   -14.9824
   XZ=     8.2522   YZ=   -21.9568   ZZ=   225.6294
   Eigenvalues:    62.0837   101.3112   228.5034
      7  C    Isotropic =    90.8236   Anisotropy =   133.7871
   XX=   -39.6799   YX=   -17.1338   ZX=   -13.1057
   XY=   -18.0163   YY=   136.9851   ZY=   -14.6649
   XZ=   -10.9807   YZ=   -13.6722   ZZ=   175.1654
   Eigenvalues:   -42.2376   134.6933   180.0149
      8  O    Isotropic =   330.8135   Anisotropy =    76.8936
   XX=   290.8296   YX=    40.5706   ZX=    26.2983
   XY=    49.6792   YY=   324.4805   ZY=   -18.7309
   XZ=     5.3019   YZ=    20.7616   ZZ=   377.1303
   Eigenvalues:   258.1920   352.1725   382.0759
      9  C    Isotropic =   185.5562   Anisotropy =    47.7025
   XX=   205.5929   YX=   -10.5198   ZX=   -15.5390
   XY=   -14.6678   YY=   180.4491   ZY=     4.2476
   XZ=   -17.3913   YZ=     7.6175   ZZ=   170.6268
   Eigenvalues:   164.0330   175.2779   217.3579
     10  C    Isotropic =   208.5484   Anisotropy =    11.3607
   XX=   214.6025   YX=    -4.4857   ZX=    -1.4539
   XY=     1.0998   YY=   203.0998   ZY=    -1.6677
   XZ=    -5.3931   YZ=    -1.3982   ZZ=   207.9430
   Eigenvalues:   202.0657   207.4574   216.1223
     11  C    Isotropic =   216.9087   Anisotropy =    18.0537
   XX=   227.1793   YX=     3.4337   ZX=     3.4140
   XY=     3.8477   YY=   220.6140   ZY=    -1.5275
   XZ=     1.8974   YZ=    -0.9216   ZZ=   202.9328
   Eigenvalues:   202.4984   219.2832   228.9445
     12  C    Isotropic =   202.6392   Anisotropy =    38.6557
   XX=   193.1615   YX=   -11.0504   ZX=     1.7468
   XY=   -17.0276   YY=   221.7512   ZY=     6.2011
   XZ=     1.9839   YZ=     7.5594   ZZ=   193.0048
   Eigenvalues:   184.8774   194.6305   228.4097
     13  N    Isotropic =   296.6745   Anisotropy =    58.7410
   XX=   329.8149   YX=     2.8959   ZX=    23.0176
   XY=    -1.3827   YY=   318.5320   ZY=    -1.5852
   XZ=    24.0613   YZ=   -16.4041   ZZ=   241.6765
   Eigenvalues:   234.8352   319.3531   335.8351
     14  C    Isotropic =   195.2613   Anisotropy =    37.4704
   XX=   208.1207   YX=    12.8223   ZX=     3.1950
   XY=    11.9551   YY=   207.5591   ZY=    -1.8859
   XZ=     7.3682   YZ=    -6.9619   ZZ=   170.1040
   Eigenvalues:   168.3599   197.1823   220.2415
     15  C    Isotropic =   211.3129   Anisotropy =    27.8359
   XX=   222.5166   YX=    -1.9644   ZX=     6.3422
   XY=    -9.8269   YY=   215.6159   ZY=   -10.6817
   XZ=     2.6913   YZ=   -16.6077   ZZ=   195.8063
   Eigenvalues:   188.7940   215.2745   229.8702
     16  C    Isotropic =   215.8253   Anisotropy =    16.7864
   XX=   226.0435   YX=     0.9918   ZX=     4.9583
   XY=     1.5435   YY=   225.1383   ZY=    -3.3922
   XZ=    -0.1282   YZ=     1.8258   ZZ=   196.2942
   Eigenvalues:   196.0726   224.3872   227.0163
     17  C    Isotropic =   196.5566   Anisotropy =    50.2854
   XX=   208.7849   YX=   -18.7738   ZX=    17.0062
   XY=   -13.7401   YY=   202.3885   ZY=   -11.0641
   XZ=    21.4836   YZ=    -5.2687   ZZ=   178.4963
   Eigenvalues:   169.1493   190.4403   230.0802
     18  O    Isotropic =  -338.3965   Anisotropy =  1245.7468
   XX=  -395.7587   YX=   136.0922   ZX=    -7.2641
   XY=    92.1177   YY= -1014.4302   ZY=  -362.0655
   XZ=     3.9164   YZ=  -398.7099   ZZ=   394.9995
   Eigenvalues: -1127.1602  -380.1307   492.1014
     19  C    Isotropic =   218.2476   Anisotropy =    23.2069
   XX=   215.5344   YX=    -0.0867   ZX=    -0.3201
   XY=     0.4038   YY=   233.4688   ZY=     2.6493
   XZ=    -1.0407   YZ=     2.6361   ZZ=   205.7397
   Eigenvalues:   205.4426   215.5814   233.7189
     20  H    Isotropic =    31.5078   Anisotropy =     6.5948
   XX=    31.6404   YX=    -0.7497   ZX=    -1.8614
   XY=    -2.0180   YY=    27.0254   ZY=    -1.4886
   XZ=     1.0551   YZ=     0.6906   ZZ=    35.8577
   Eigenvalues:    26.6160    32.0031    35.9043
     21  H    Isotropic =    31.1689   Anisotropy =     7.9453
   XX=    30.5740   YX=     0.6923   ZX=     2.6595
   XY=     0.8325   YY=    26.9022   ZY=     0.6304
   XZ=     0.2344   YZ=    -2.7440   ZZ=    36.0305
   Eigenvalues:    26.5593    30.4816    36.4657
     22  H    Isotropic =    31.3104   Anisotropy =    10.3540
   XX=    29.0606   YX=    -0.1050   ZX=     3.6275
   XY=    -0.6517   YY=    29.2012   ZY=     4.8913
   XZ=     0.1942   YZ=     4.0518   ZZ=    35.6694
   Eigenvalues:    26.3393    29.3788    38.2131
     23  H    Isotropic =    25.8974   Anisotropy =     6.0228
   XX=    28.2882   YX=    -1.5178   ZX=    -0.6671
   XY=    -1.5109   YY=    28.2255   ZY=     0.8845
   XZ=    -0.6262   YZ=     0.9653   ZZ=    21.1785
   Eigenvalues:    21.0302    26.7494    29.9126
     24  H    Isotropic =    25.2858   Anisotropy =     3.6840
   XX=    27.1620   YX=     0.3620   ZX=    -0.4092
   XY=     0.7219   YY=    27.2283   ZY=     0.5485
   XZ=    -0.3480   YZ=     0.5694   ZZ=    21.4673
   Eigenvalues:    21.3815    26.7342    27.7418
     25  H    Isotropic =    25.7016   Anisotropy =     7.0881
   XX=    29.7498   YX=    -1.4963   ZX=    -1.0038
   XY=    -1.0731   YY=    27.0382   ZY=     0.7987
   XZ=    -0.9676   YZ=     1.2071   ZZ=    20.3167
   Eigenvalues:    20.1036    26.5741    30.4270
     26  H    Isotropic =    31.3765   Anisotropy =    14.1311
   XX=    30.0127   YX=    -2.0791   ZX=    -0.2464
   XY=    -2.3592   YY=    39.5062   ZY=     3.3095
   XZ=    -0.6950   YZ=     3.8420   ZZ=    24.6106
   Eigenvalues:    23.7965    29.5359    40.7972
     27  H    Isotropic =    31.3990   Anisotropy =    14.1305
   XX=    28.7790   YX=     1.9904   ZX=    -1.6320
   XY=     1.5116   YY=    29.7016   ZY=    -6.5904
   XZ=    -2.3718   YZ=    -7.2243   ZZ=    35.7164
   Eigenvalues:    25.1330    28.2447    40.8194
     28  H    Isotropic =    32.3435   Anisotropy =     8.7365
   XX=    29.9119   YX=    -0.6017   ZX=     1.0212
   XY=    -0.9108   YY=    30.3790   ZY=     3.2372
   XZ=     1.5861   YZ=     3.1455   ZZ=    36.7394
   Eigenvalues:    28.1814    30.6812    38.1678
     29  H    Isotropic =    31.5454   Anisotropy =    14.0200
   XX=    34.8129   YX=     5.3015   ZX=     1.0841
   XY=     5.7656   YY=    35.8403   ZY=    -0.6441
   XZ=     0.7525   YZ=    -0.0303   ZZ=    23.9830
   Eigenvalues:    23.8367    29.9075    40.8920
     30  H    Isotropic =    32.3491   Anisotropy =     9.4825
   XX=    30.9439   YX=    -0.2912   ZX=    -3.0341
   XY=    -1.2977   YY=    29.6439   ZY=    -3.6785
   XZ=    -1.7584   YZ=    -4.0621   ZZ=    36.4594
   Eigenvalues:    27.0731    31.3034    38.6707
     31  H    Isotropic =    31.2426   Anisotropy =    15.6565
   XX=    30.0484   YX=     4.4053   ZX=     1.4751
   XY=     3.4374   YY=    39.6833   ZY=     3.2478
   XZ=     2.1891   YZ=     2.3702   ZZ=    23.9961
   Eigenvalues:    23.2839    28.7637    41.6803
     32  H    Isotropic =    32.2159   Anisotropy =    15.6614
   XX=    33.2772   YX=    -5.5277   ZX=     4.9096
   XY=    -5.5662   YY=    33.1497   ZY=    -4.7225
   XZ=     5.0949   YZ=    -4.9592   ZZ=    30.2209
   Eigenvalues:    26.3217    27.6692    42.6569
     33  H    Isotropic =    31.8459   Anisotropy =    14.2877
   XX=    31.2383   YX=    -3.5202   ZX=    -4.7916
   XY=    -3.8206   YY=    31.2090   ZY=     5.4716
   XZ=    -5.0431   YZ=     5.3966   ZZ=    33.0905
   Eigenvalues:    26.5380    27.6288    41.3711
     34  H    Isotropic =    32.2513   Anisotropy =    10.7664
   XX=    30.5652   YX=    -0.2398   ZX=     5.2007
   XY=    -0.2914   YY=    30.7143   ZY=     2.2090
   XZ=     5.4215   YZ=     3.2947   ZZ=    35.4745
   Eigenvalues:    26.4243    30.9007    39.4290
     35  H    Isotropic =    31.4430   Anisotropy =    14.4657
   XX=    39.9670   YX=     3.0014   ZX=    -3.2328
   XY=     2.5164   YY=    29.0502   ZY=    -0.7586
   XZ=    -1.8824   YZ=    -1.0662   ZZ=    25.3117
   Eigenvalues:    24.8261    28.4160    41.0868
     36  H    Isotropic =    31.2547   Anisotropy =    10.1995
   XX=    31.5120   YX=    -2.2587   ZX=     3.6128
   XY=    -1.3753   YY=    33.4129   ZY=    -3.1212
   XZ=     2.3155   YZ=    -6.6456   ZZ=    28.8394
   Eigenvalues:    25.2980    30.4119    38.0544
     37  H    Isotropic =    30.9968   Anisotropy =    12.2812
   XX=    36.9289   YX=     3.5569   ZX=    -0.7685
   XY=     4.3570   YY=    32.1469   ZY=     0.4603
   XZ=    -0.9730   YZ=     0.2107   ZZ=    23.9146
   Eigenvalues:    23.8068    29.9993    39.1843
     38  H    Isotropic =    30.7440   Anisotropy =    10.9786
   XX=    29.5922   YX=    -0.5825   ZX=    -3.1585
   XY=    -0.6889   YY=    30.7946   ZY=     4.3856
   XZ=    -2.8994   YZ=     7.3379   ZZ=    31.8454
   Eigenvalues:    24.8410    29.3280    38.0631
 End of Minotr F.D. properties file   721 does not exist.
 End of Minotr F.D. properties file   722 does not exist.
 End of Minotr F.D. properties file   788 does not exist.

 **********************************************************************

            Population analysis using the SCF Density.

 **********************************************************************

 Orbital symmetries:
       Occupied  (A) (A) (A) (A) (A) (A) (A) (A) (A) (A) (A) (A)
                 (A) (A) (A) (A) (A) (A) (A) (A) (A) (A) (A) (A)
                 (A) (A) (A) (A) (A) (A) (A) (A) (A) (A) (A) (A)
                 (A) (A) (A) (A) (A) (A) (A) (A) (A) (A) (A) (A)
                 (A) (A) (A) (A) (A) (A) (A) (A) (A) (A) (A) (A)
                 (A) (A) (A) (A) (A) (A) (A) (A) (A)
       Virtual   (A) (A) (A) (A) (A) (A) (A) (A) (A) (A) (A) (A)
                 (A) (A) (A) (A) (A) (A) (A) (A) (A) (A) (A) (A)
                 (A) (A) (A) (A) (A) (A) (A) (A) (A) (A) (A) (A)
                 (A) (A) (A) (A) (A) (A) (A) (A) (A)
 The electronic state is 1-A.
 Alpha  occ. eigenvalues --  -20.29831 -20.26586 -15.30717 -11.11748 -11.11228
 Alpha  occ. eigenvalues --  -11.09697 -11.07816 -11.07501 -11.06670 -11.06562
 Alpha  occ. eigenvalues --  -11.05282 -11.05149 -11.04409 -11.04221 -11.04050
 Alpha  occ. eigenvalues --  -11.03997 -11.02886 -11.02258 -11.01928  -1.34371
 Alpha  occ. eigenvalues --   -1.31814  -1.19391  -1.09796  -1.05225  -1.02973
 Alpha  occ. eigenvalues --   -0.99202  -0.97863  -0.94964  -0.91926  -0.88204
 Alpha  occ. eigenvalues --   -0.84418  -0.79975  -0.76779  -0.75830  -0.74361
 Alpha  occ. eigenvalues --   -0.71573  -0.70018  -0.65212  -0.64370  -0.62243
 Alpha  occ. eigenvalues --   -0.61148  -0.59973  -0.58345  -0.57227  -0.55717
 Alpha  occ. eigenvalues --   -0.55201  -0.54311  -0.53482  -0.52611  -0.51775
 Alpha  occ. eigenvalues --   -0.50552  -0.50258  -0.49731  -0.47242  -0.46992
 Alpha  occ. eigenvalues --   -0.45763  -0.45352  -0.44117  -0.43868  -0.43433
 Alpha  occ. eigenvalues --   -0.43062  -0.41677  -0.41213  -0.39086  -0.36415
 Alpha  occ. eigenvalues --   -0.31695  -0.27602  -0.27389  -0.24535
 Alpha virt. eigenvalues --    0.21294   0.26847   0.34535   0.48989   0.50756
 Alpha virt. eigenvalues --    0.52373   0.55410   0.56506   0.58602   0.59805
 Alpha virt. eigenvalues --    0.60324   0.60591   0.61652   0.64187   0.64700
 Alpha virt. eigenvalues --    0.65684   0.68154   0.68276   0.69155   0.69378
 Alpha virt. eigenvalues --    0.70789   0.71489   0.72413   0.73453   0.73615
 Alpha virt. eigenvalues --    0.73777   0.74023   0.75047   0.76119   0.77692
 Alpha virt. eigenvalues --    0.77906   0.78480   0.79400   0.80242   0.81775
 Alpha virt. eigenvalues --    0.83733   0.84373   0.85574   0.86776   0.87174
 Alpha virt. eigenvalues --    0.89855   0.93484   1.00877   1.11916   1.13383
          Condensed to atoms (all electrons):
               1          2          3          4          5          6
     1  C    4.757421   0.505273  -0.028660  -0.009871  -0.027585   0.497673
     2  C    0.505273   4.807476   0.504223  -0.031369  -0.011319  -0.031390
     3  C   -0.028660   0.504223   4.759016   0.508748  -0.029332  -0.009632
     4  C   -0.009871  -0.031369   0.508748   4.806333   0.499310  -0.031744
     5  C   -0.027585  -0.011319  -0.029332   0.499310   4.757235   0.488691
     6  C    0.497673  -0.031390  -0.009632  -0.031744   0.488691   4.875998
     7  C   -0.023241   0.000765   0.000019   0.000804  -0.030051   0.388922
     8  O    0.000239   0.000008   0.000346  -0.026790   0.292990  -0.016553
     9  C    0.000030   0.000000  -0.000019   0.001688  -0.040098  -0.007631
    10  C    0.000621  -0.000007  -0.000000  -0.000033  -0.004779  -0.035792
    11  C    0.000000   0.000000   0.000000  -0.000013   0.001570  -0.000002
    12  C   -0.000000  -0.000000  -0.000000   0.000000  -0.000016  -0.000001
    13  N    0.000000  -0.000000  -0.000000   0.000000  -0.000000  -0.000002
    14  C   -0.000004   0.000000  -0.000000   0.000000   0.000018   0.000586
    15  C   -0.000000  -0.000000   0.000000  -0.000000  -0.000000  -0.000001
    16  C   -0.000000   0.000000  -0.000000   0.000000   0.000000   0.000000
    17  C   -0.000000   0.000000  -0.000000   0.000000  -0.000000   0.000000
    18  O   -0.000983  -0.000004  -0.000000  -0.000002   0.000326  -0.027332
    19  C    0.381506  -0.030042   0.000874   0.000011   0.000710  -0.024151
    20  H   -0.000013   0.000000   0.000000  -0.000011   0.000050  -0.000434
    21  H   -0.000016  -0.000001   0.000000   0.000079  -0.003292   0.000746
    22  H   -0.000000   0.000000  -0.000000   0.000000   0.000000   0.000028
    23  H   -0.025085   0.394154  -0.026800   0.001415   0.000049   0.001267
    24  H    0.001319  -0.024819   0.393588  -0.025157   0.001373   0.000010
    25  H    0.000035   0.001375  -0.024597   0.393476  -0.025312   0.001231
    26  H    0.000000   0.000000   0.000000  -0.000006   0.000100   0.000001
    27  H   -0.000000  -0.000000  -0.000000   0.000001  -0.000040  -0.000000
    28  H   -0.000000   0.000000  -0.000000   0.000000  -0.000003   0.000000
    29  H    0.000000   0.000000   0.000000  -0.000000   0.000000   0.000000
    30  H    0.000000  -0.000000   0.000000  -0.000000  -0.000000  -0.000003
    31  H   -0.000000   0.000000  -0.000000   0.000000  -0.000000   0.000002
    32  H    0.000000  -0.000000   0.000000  -0.000000  -0.000000  -0.000000
    33  H    0.000000  -0.000000  -0.000000   0.000000  -0.000000   0.000000
    34  H   -0.000000   0.000000  -0.000000   0.000000  -0.000000   0.000000
    35  H    0.000000  -0.000000  -0.000000  -0.000000  -0.000000  -0.000000
    36  H   -0.021151   0.000762  -0.000024   0.000002   0.000001  -0.001958
    37  H   -0.020523  -0.005607   0.000060  -0.000000  -0.000016   0.001137
    38  H   -0.021156   0.000674  -0.000023   0.000002   0.000000  -0.001767
               7          8          9         10         11         12
     1  C   -0.023241   0.000239   0.000030   0.000621   0.000000  -0.000000
     2  C    0.000765   0.000008   0.000000  -0.000007   0.000000  -0.000000
     3  C    0.000019   0.000346  -0.000019  -0.000000   0.000000  -0.000000
     4  C    0.000804  -0.026790   0.001688  -0.000033  -0.000013   0.000000
     5  C   -0.030051   0.292990  -0.040098  -0.004779   0.001570  -0.000016
     6  C    0.388922  -0.016553  -0.007631  -0.035792  -0.000002  -0.000001
     7  C    4.769642  -0.001567  -0.026976   0.357049   0.000771   0.000041
     8  O   -0.001567   7.797513   0.261065  -0.018064  -0.018768   0.000244
     9  C   -0.026976   0.261065   4.745496   0.356203   0.358300  -0.021546
    10  C    0.357049  -0.018064   0.356203   4.828182  -0.022933  -0.009752
    11  C    0.000771  -0.018768   0.358300  -0.022933   4.758620   0.362436
    12  C    0.000041   0.000244  -0.021546  -0.009752   0.362436   4.699337
    13  N    0.000363   0.000001  -0.002960  -0.016885  -0.021021   0.331386
    14  C   -0.019311   0.000254  -0.021547   0.361567  -0.004265  -0.031061
    15  C   -0.000751  -0.000001   0.000690  -0.020388   0.000003   0.000998
    16  C    0.000002   0.000000  -0.000010   0.000883  -0.000015   0.001346
    17  C   -0.000008   0.000000   0.000020   0.000869   0.001104  -0.035146
    18  O    0.433108  -0.000000   0.000267  -0.025314  -0.000001  -0.000000
    19  C   -0.002599  -0.000001  -0.000000   0.000007  -0.000000   0.000000
    20  H   -0.024218  -0.001008  -0.021218   0.378452  -0.001212  -0.000317
    21  H   -0.003654  -0.018619   0.378343  -0.025617  -0.025774   0.001113
    22  H   -0.002752   0.000000  -0.001731  -0.026409   0.000116   0.001516
    23  H   -0.000014   0.000000  -0.000000   0.000000   0.000000  -0.000000
    24  H    0.000001  -0.000005   0.000000  -0.000000  -0.000000   0.000000
    25  H   -0.000018  -0.001087   0.000032   0.000000  -0.000003   0.000000
    26  H   -0.000018  -0.002036  -0.020030   0.000860   0.380467  -0.020142
    27  H   -0.000015   0.000586  -0.022709   0.001071   0.383311  -0.022946
    28  H   -0.000001   0.000038  -0.001223  -0.000139  -0.025300   0.377136
    29  H    0.000000  -0.000005   0.001200   0.000064  -0.020669   0.383664
    30  H    0.000026  -0.000000   0.000028  -0.004396   0.000003  -0.000021
    31  H   -0.000125   0.000000  -0.000008   0.000375  -0.000001  -0.000017
    32  H   -0.000000  -0.000000   0.000000  -0.000017   0.000000  -0.000030
    33  H    0.000000   0.000000   0.000000  -0.000005   0.000000  -0.000008
    34  H   -0.000000   0.000000   0.000002   0.000022   0.000028  -0.006390
    35  H    0.000000   0.000000  -0.000001  -0.000019  -0.000006   0.000566
    36  H   -0.000099  -0.000000  -0.000000  -0.000002   0.000000   0.000000
    37  H    0.000015   0.000000   0.000000   0.000000   0.000000  -0.000000
    38  H   -0.000040  -0.000000  -0.000000  -0.000003  -0.000000   0.000000
              13         14         15         16         17         18
     1  C    0.000000  -0.000004  -0.000000  -0.000000  -0.000000  -0.000983
     2  C   -0.000000   0.000000  -0.000000   0.000000   0.000000  -0.000004
     3  C   -0.000000  -0.000000   0.000000  -0.000000  -0.000000  -0.000000
     4  C    0.000000   0.000000  -0.000000   0.000000   0.000000  -0.000002
     5  C   -0.000000   0.000018  -0.000000   0.000000  -0.000000   0.000326
     6  C   -0.000002   0.000586  -0.000001   0.000000   0.000000  -0.027332
     7  C    0.000363  -0.019311  -0.000751   0.000002  -0.000008   0.433108
     8  O    0.000001   0.000254  -0.000001   0.000000   0.000000  -0.000000
     9  C   -0.002960  -0.021547   0.000690  -0.000010   0.000020   0.000267
    10  C   -0.016885   0.361567  -0.020388   0.000883   0.000869  -0.025314
    11  C   -0.021021  -0.004265   0.000003  -0.000015   0.001104  -0.000001
    12  C    0.331386  -0.031061   0.000998   0.001346  -0.035146  -0.000000
    13  N    6.513696   0.325369  -0.028522  -0.029448   0.332984  -0.000000
    14  C    0.325369   4.730834   0.364879  -0.035587  -0.042767  -0.001226
    15  C   -0.028522   0.364879   4.767791   0.363349  -0.039866  -0.000572
    16  C   -0.029448  -0.035587   0.363349   4.754710   0.365364   0.000003
    17  C    0.332984  -0.042767  -0.039866   0.365364   4.716609  -0.000000
    18  O   -0.000000  -0.001226  -0.000572   0.000003  -0.000000   7.853807
    19  C    0.000000  -0.000000   0.000000  -0.000000  -0.000000  -0.001515
    20  H   -0.000536  -0.021279  -0.003136   0.000036   0.000066  -0.000028
    21  H    0.000049  -0.001147  -0.000006   0.000000   0.000001   0.000007
    22  H   -0.029562   0.381882  -0.025841  -0.000248   0.001717   0.000378
    23  H    0.000000  -0.000000   0.000000  -0.000000  -0.000000   0.000000
    24  H   -0.000000   0.000000  -0.000000   0.000000   0.000000  -0.000000
    25  H    0.000000  -0.000000  -0.000000  -0.000000   0.000000   0.000000
    26  H    0.000884   0.000020   0.000000   0.000000  -0.000024   0.000000
    27  H   -0.000844   0.000045   0.000001  -0.000000   0.000007   0.000000
    28  H   -0.022654  -0.001509   0.000150   0.000056  -0.003985   0.000000
    29  H   -0.021219   0.001619  -0.000031   0.000004  -0.001725   0.000000
    30  H    0.000162  -0.021649   0.382261  -0.022474  -0.000835  -0.000002
    31  H    0.000943  -0.018536   0.384666  -0.020170   0.001669   0.000080
    32  H    0.001023   0.001529  -0.019436   0.384249  -0.019309  -0.000000
    33  H   -0.000364  -0.000792  -0.021901   0.384112  -0.021639   0.000000
    34  H   -0.020400   0.000425  -0.000810  -0.023381   0.378656   0.000000
    35  H   -0.022408   0.001761   0.001555  -0.020256   0.383196   0.000000
    36  H   -0.000000  -0.000000  -0.000000   0.000000   0.000000  -0.000177
    37  H    0.000000  -0.000000   0.000000  -0.000000  -0.000000   0.000058
    38  H   -0.000000   0.000000   0.000000   0.000000   0.000000  -0.000459
              19         20         21         22         23         24
     1  C    0.381506  -0.000013  -0.000016  -0.000000  -0.025085   0.001319
     2  C   -0.030042   0.000000  -0.000001   0.000000   0.394154  -0.024819
     3  C    0.000874   0.000000   0.000000  -0.000000  -0.026800   0.393588
     4  C    0.000011  -0.000011   0.000079   0.000000   0.001415  -0.025157
     5  C    0.000710   0.000050  -0.003292   0.000000   0.000049   0.001373
     6  C   -0.024151  -0.000434   0.000746   0.000028   0.001267   0.000010
     7  C   -0.002599  -0.024218  -0.003654  -0.002752  -0.000014   0.000001
     8  O   -0.000001  -0.001008  -0.018619   0.000000   0.000000  -0.000005
     9  C   -0.000000  -0.021218   0.378343  -0.001731  -0.000000   0.000000
    10  C    0.000007   0.378452  -0.025617  -0.026409   0.000000  -0.000000
    11  C   -0.000000  -0.001212  -0.025774   0.000116   0.000000  -0.000000
    12  C    0.000000  -0.000317   0.001113   0.001516  -0.000000   0.000000
    13  N    0.000000  -0.000536   0.000049  -0.029562   0.000000  -0.000000
    14  C   -0.000000  -0.021279  -0.001147   0.381882  -0.000000   0.000000
    15  C    0.000000  -0.003136  -0.000006  -0.025841   0.000000  -0.000000
    16  C   -0.000000   0.000036   0.000000  -0.000248  -0.000000   0.000000
    17  C   -0.000000   0.000066   0.000001   0.001717  -0.000000   0.000000
    18  O   -0.001515  -0.000028   0.000007   0.000378   0.000000  -0.000000
    19  C    4.713156   0.000000  -0.000000  -0.000000  -0.004223  -0.000016
    20  H    0.000000   0.622370   0.001787   0.001794  -0.000000  -0.000000
    21  H   -0.000000   0.001787   0.643540   0.000352  -0.000000   0.000000
    22  H   -0.000000   0.001794   0.000352   0.644905  -0.000000   0.000000
    23  H   -0.004223  -0.000000  -0.000000  -0.000000   0.605265  -0.003747
    24  H   -0.000016  -0.000000   0.000000   0.000000  -0.003747   0.594028
    25  H    0.000000  -0.000000   0.000001  -0.000000  -0.000032  -0.003710
    26  H   -0.000000   0.000037   0.001389   0.000002   0.000000  -0.000000
    27  H    0.000000  -0.000006  -0.007614  -0.000041  -0.000000   0.000000
    28  H    0.000000  -0.000877  -0.000017  -0.000099  -0.000000   0.000000
    29  H   -0.000000   0.000002  -0.000035  -0.000023   0.000000  -0.000000
    30  H    0.000000   0.000423  -0.000001   0.001809   0.000000  -0.000000
    31  H    0.000000   0.000026   0.000001  -0.004346  -0.000000   0.000000
    32  H    0.000000  -0.000002   0.000000  -0.000011   0.000000  -0.000000
    33  H    0.000000  -0.000001  -0.000000   0.000059   0.000000   0.000000
    34  H   -0.000000  -0.000004  -0.000000  -0.000091  -0.000000   0.000000
    35  H    0.000000  -0.000001   0.000000  -0.000002   0.000000  -0.000000
    36  H    0.380494   0.000001  -0.000000   0.000000   0.000066   0.000000
    37  H    0.382838  -0.000000  -0.000000  -0.000000   0.000179  -0.000003
    38  H    0.380853  -0.000000   0.000000  -0.000000   0.000072   0.000000
              25         26         27         28         29         30
     1  C    0.000035   0.000000  -0.000000  -0.000000   0.000000   0.000000
     2  C    0.001375   0.000000  -0.000000   0.000000   0.000000  -0.000000
     3  C   -0.024597   0.000000  -0.000000  -0.000000   0.000000   0.000000
     4  C    0.393476  -0.000006   0.000001   0.000000  -0.000000  -0.000000
     5  C   -0.025312   0.000100  -0.000040  -0.000003   0.000000  -0.000000
     6  C    0.001231   0.000001  -0.000000   0.000000   0.000000  -0.000003
     7  C   -0.000018  -0.000018  -0.000015  -0.000001   0.000000   0.000026
     8  O   -0.001087  -0.002036   0.000586   0.000038  -0.000005  -0.000000
     9  C    0.000032  -0.020030  -0.022709  -0.001223   0.001200   0.000028
    10  C    0.000000   0.000860   0.001071  -0.000139   0.000064  -0.004396
    11  C   -0.000003   0.380467   0.383311  -0.025300  -0.020669   0.000003
    12  C    0.000000  -0.020142  -0.022946   0.377136   0.383664  -0.000021
    13  N    0.000000   0.000884  -0.000844  -0.022654  -0.021219   0.000162
    14  C   -0.000000   0.000020   0.000045  -0.001509   0.001619  -0.021649
    15  C   -0.000000   0.000000   0.000001   0.000150  -0.000031   0.382261
    16  C   -0.000000   0.000000  -0.000000   0.000056   0.000004  -0.022474
    17  C    0.000000  -0.000024   0.000007  -0.003985  -0.001725  -0.000835
    18  O    0.000000   0.000000   0.000000   0.000000   0.000000  -0.000002
    19  C    0.000000  -0.000000   0.000000   0.000000  -0.000000   0.000000
    20  H   -0.000000   0.000037  -0.000006  -0.000877   0.000002   0.000423
    21  H    0.000001   0.001389  -0.007614  -0.000017  -0.000035  -0.000001
    22  H   -0.000000   0.000002  -0.000041  -0.000099  -0.000023   0.001809
    23  H   -0.000032   0.000000  -0.000000  -0.000000   0.000000   0.000000
    24  H   -0.003710  -0.000000   0.000000   0.000000  -0.000000  -0.000000
    25  H    0.589312  -0.000001   0.000000   0.000000  -0.000000   0.000000
    26  H   -0.000001   0.612989  -0.022129  -0.002842  -0.001345  -0.000000
    27  H    0.000000  -0.022129   0.628545   0.002002  -0.003642  -0.000000
    28  H    0.000000  -0.002842   0.002002   0.663974  -0.026600  -0.000002
    29  H   -0.000000  -0.001345  -0.003642  -0.026600   0.625937   0.000000
    30  H    0.000000  -0.000000  -0.000000  -0.000002   0.000000   0.639912
    31  H   -0.000000  -0.000000   0.000000  -0.000003   0.000001  -0.022663
    32  H   -0.000000  -0.000000   0.000000   0.000000  -0.000000  -0.003982
    33  H   -0.000000   0.000000  -0.000000  -0.000002  -0.000000   0.001911
    34  H    0.000000  -0.000001  -0.000000   0.001910  -0.000501   0.000020
    35  H    0.000000   0.000000   0.000000  -0.000160   0.000311  -0.000004
    36  H   -0.000000  -0.000000   0.000000  -0.000000   0.000000   0.000000
    37  H    0.000000   0.000000  -0.000000  -0.000000   0.000000   0.000000
    38  H   -0.000000   0.000000   0.000000   0.000000  -0.000000  -0.000000
              31         32         33         34         35         36
     1  C   -0.000000   0.000000   0.000000  -0.000000   0.000000  -0.021151
     2  C    0.000000  -0.000000  -0.000000   0.000000  -0.000000   0.000762
     3  C   -0.000000   0.000000  -0.000000  -0.000000  -0.000000  -0.000024
     4  C    0.000000  -0.000000   0.000000   0.000000  -0.000000   0.000002
     5  C   -0.000000  -0.000000  -0.000000  -0.000000  -0.000000   0.000001
     6  C    0.000002  -0.000000   0.000000   0.000000  -0.000000  -0.001958
     7  C   -0.000125  -0.000000   0.000000  -0.000000   0.000000  -0.000099
     8  O    0.000000  -0.000000   0.000000   0.000000   0.000000  -0.000000
     9  C   -0.000008   0.000000   0.000000   0.000002  -0.000001  -0.000000
    10  C    0.000375  -0.000017  -0.000005   0.000022  -0.000019  -0.000002
    11  C   -0.000001   0.000000   0.000000   0.000028  -0.000006   0.000000
    12  C   -0.000017  -0.000030  -0.000008  -0.006390   0.000566   0.000000
    13  N    0.000943   0.001023  -0.000364  -0.020400  -0.022408  -0.000000
    14  C   -0.018536   0.001529  -0.000792   0.000425   0.001761  -0.000000
    15  C    0.384666  -0.019436  -0.021901  -0.000810   0.001555  -0.000000
    16  C   -0.020170   0.384249   0.384112  -0.023381  -0.020256   0.000000
    17  C    0.001669  -0.019309  -0.021639   0.378656   0.383196   0.000000
    18  O    0.000080  -0.000000   0.000000   0.000000   0.000000  -0.000177
    19  C    0.000000   0.000000   0.000000  -0.000000   0.000000   0.380494
    20  H    0.000026  -0.000002  -0.000001  -0.000004  -0.000001   0.000001
    21  H    0.000001   0.000000  -0.000000  -0.000000   0.000000  -0.000000
    22  H   -0.004346  -0.000011   0.000059  -0.000091  -0.000002   0.000000
    23  H   -0.000000   0.000000   0.000000  -0.000000   0.000000   0.000066
    24  H    0.000000  -0.000000   0.000000   0.000000  -0.000000   0.000000
    25  H   -0.000000  -0.000000  -0.000000   0.000000   0.000000  -0.000000
    26  H   -0.000000  -0.000000   0.000000  -0.000001   0.000000  -0.000000
    27  H    0.000000   0.000000  -0.000000  -0.000000   0.000000   0.000000
    28  H   -0.000003   0.000000  -0.000002   0.001910  -0.000160  -0.000000
    29  H    0.000001  -0.000000  -0.000000  -0.000501   0.000311   0.000000
    30  H   -0.022663  -0.003982   0.001911   0.000020  -0.000004   0.000000
    31  H    0.612827  -0.000108  -0.003972  -0.000013  -0.000036   0.000000
    32  H   -0.000108   0.625423  -0.022747  -0.003871   0.000167  -0.000000
    33  H   -0.003972  -0.022747   0.628307   0.001905  -0.004044  -0.000000
    34  H   -0.000013  -0.003871   0.001905   0.655835  -0.026891  -0.000000
    35  H   -0.000036   0.000167  -0.004044  -0.026891   0.627324   0.000000
    36  H    0.000000  -0.000000  -0.000000  -0.000000   0.000000   0.608986
    37  H   -0.000000   0.000000  -0.000000  -0.000000   0.000000  -0.021973
    38  H    0.000000  -0.000000   0.000000   0.000000  -0.000000  -0.018451
              37         38
     1  C   -0.020523  -0.021156
     2  C   -0.005607   0.000674
     3  C    0.000060  -0.000023
     4  C   -0.000000   0.000002
     5  C   -0.000016   0.000000
     6  C    0.001137  -0.001767
     7  C    0.000015  -0.000040
     8  O    0.000000  -0.000000
     9  C    0.000000  -0.000000
    10  C    0.000000  -0.000003
    11  C    0.000000  -0.000000
    12  C   -0.000000   0.000000
    13  N    0.000000  -0.000000
    14  C   -0.000000   0.000000
    15  C    0.000000   0.000000
    16  C   -0.000000   0.000000
    17  C   -0.000000   0.000000
    18  O    0.000058  -0.000459
    19  C    0.382838   0.380853
    20  H   -0.000000  -0.000000
    21  H   -0.000000   0.000000
    22  H   -0.000000  -0.000000
    23  H    0.000179   0.000072
    24  H   -0.000003   0.000000
    25  H    0.000000  -0.000000
    26  H    0.000000   0.000000
    27  H   -0.000000   0.000000
    28  H   -0.000000   0.000000
    29  H    0.000000  -0.000000
    30  H    0.000000  -0.000000
    31  H   -0.000000   0.000000
    32  H    0.000000  -0.000000
    33  H   -0.000000   0.000000
    34  H   -0.000000   0.000000
    35  H    0.000000  -0.000000
    36  H   -0.021973  -0.018451
    37  H    0.624268  -0.021884
    38  H   -0.021884   0.604861
 Mulliken charges:
               1
     1  C    0.034170
     2  C   -0.080152
     3  C   -0.047787
     4  C   -0.086875
     5  C    0.129419
     6  C   -0.067900
     7  C    0.183931
     8  O   -0.248781
     9  C    0.084343
    10  C   -0.075669
    11  C   -0.106746
    12  C   -0.012390
    13  N   -0.290033
    14  C    0.049893
    15  C   -0.105080
    16  C   -0.102526
    17  C   -0.016958
    18  O   -0.230420
    19  C   -0.177904
    20  H    0.069257
    21  H    0.058383
    22  H    0.056598
    23  H    0.057433
    24  H    0.067134
    25  H    0.069297
    26  H    0.071827
    27  H    0.064418
    28  H    0.040148
    29  H    0.062993
    30  H    0.049477
    31  H    0.069407
    32  H    0.057122
    33  H    0.059181
    34  H    0.043551
    35  H    0.058946
    36  H    0.073522
    37  H    0.061451
    38  H    0.077320
 Sum of Mulliken charges =  -0.00000
 Mulliken charges with hydrogens summed into heavy atoms:
               1
     1  C    0.034170
     2  C   -0.022719
     3  C    0.019347
     4  C   -0.017577
     5  C    0.129419
     6  C   -0.067900
     7  C    0.183931
     8  O   -0.248781
     9  C    0.142726
    10  C   -0.006413
    11  C    0.029499
    12  C    0.090751
    13  N   -0.290033
    14  C    0.106491
    15  C    0.013805
    16  C    0.013777
    17  C    0.085539
    18  O   -0.230420
    19  C    0.034389
 Electronic spatial extent (au):  <R**2>=           5288.1066
 Charge=             -0.0000 electrons
 Dipole moment (field-independent basis, Debye):
    X=              0.0967    Y=             -0.4129    Z=             -0.8651  Tot=              0.9634
 Quadrupole moment (field-independent basis, Debye-Ang):
   XX=           -101.0857   YY=           -108.7682   ZZ=           -105.1973
   XY=              0.5583   XZ=              3.0069   YZ=             -1.0982
 Traceless Quadrupole moment (field-independent basis, Debye-Ang):
   XX=              3.9314   YY=             -3.7512   ZZ=             -0.1802
   XY=              0.5583   XZ=              3.0069   YZ=             -1.0982
 Octapole moment (field-independent basis, Debye-Ang**2):
  XXX=             23.1242  YYY=             -8.6047  ZZZ=              3.3452  XYY=             -1.9949
  XXY=              4.3805  XXZ=            -12.3185  XZZ=             -3.7526  YZZ=              2.3173
  YYZ=             -0.8690  XYZ=             -0.6111
 Hexadecapole moment (field-independent basis, Debye-Ang**3):
 XXXX=          -4842.5628 YYYY=          -1571.8147 ZZZZ=           -203.1146 XXXY=            -15.9772
 XXXZ=             16.8680 YYYX=              9.3319 YYYZ=             -0.4372 ZZZX=              6.3744
 ZZZY=              4.6780 XXYY=          -1047.7164 XXZZ=           -895.9703 YYZZ=           -290.9798
 XXYZ=             13.4188 YYXZ=             -5.6840 ZZXY=             -1.5182
 N-N= 1.482557403913D+03 E-N=-4.860322480192D+03  KE= 8.035501356351D+02
 ******************************Gaussian NBO Version 3.1******************************
             N A T U R A L   A T O M I C   O R B I T A L   A N D
          N A T U R A L   B O N D   O R B I T A L   A N A L Y S I S
 ******************************Gaussian NBO Version 3.1******************************
       /RESON  / : Allow strongly delocalized NBO set
       /NLMO   / : Form Natural Localized Molecular Orbitals
       /NMR /    : Analyze NMR Sheilding Tensor 

 Analyzing the SCF density

 Job title: Title Card Required                                             

 Storage needed:     43472 in NPA,     53775 in NBO,    102144 in NLMO ( 104850000 available)
 GSVD:  LWork=      -13908 too small for GESVD, short by       66690 words or       66690 for optimal perf.


 NATURAL POPULATIONS:  Natural atomic orbital occupancies 
                                                          
   NAO  Atom  No  lang   Type(AO)    Occupancy      Energy
 ----------------------------------------------------------
     1    C    1  S      Cor( 1S)     1.99991     -10.98436
     2    C    1  S      Val( 2S)     1.08132      -0.20067
     3    C    1  px     Val( 2p)     0.96062       0.15845
     4    C    1  py     Val( 2p)     0.94895       0.15175
     5    C    1  pz     Val( 2p)     0.93339       0.02152

     6    C    2  S      Cor( 1S)     1.99995     -10.94692
     7    C    2  S      Val( 2S)     1.08004      -0.18566
     8    C    2  px     Val( 2p)     0.97282       0.15318
     9    C    2  py     Val( 2p)     0.97175       0.15417
    10    C    2  pz     Val( 2p)     1.04987      -0.00430

    11    C    3  S      Cor( 1S)     1.99994     -10.96427
    12    C    3  S      Val( 2S)     1.08029      -0.18943
    13    C    3  px     Val( 2p)     0.98365       0.14316
    14    C    3  py     Val( 2p)     0.98283       0.14544
    15    C    3  pz     Val( 2p)     0.96005       0.01048

    16    C    4  S      Cor( 1S)     1.99994     -10.94862
    17    C    4  S      Val( 2S)     1.07682      -0.18563
    18    C    4  px     Val( 2p)     0.97072       0.15077
    19    C    4  py     Val( 2p)     0.98941       0.14321
    20    C    4  pz     Val( 2p)     1.05962      -0.00931

    21    C    5  S      Cor( 1S)     1.99978     -11.03308
    22    C    5  S      Val( 2S)     1.06265      -0.21725
    23    C    5  px     Val( 2p)     0.86951       0.14258
    24    C    5  py     Val( 2p)     0.92030       0.15854
    25    C    5  pz     Val( 2p)     0.96067      -0.01130

    26    C    6  S      Cor( 1S)     1.99991     -10.96157
    27    C    6  S      Val( 2S)     1.08848      -0.20983
    28    C    6  px     Val( 2p)     0.97230       0.14047
    29    C    6  py     Val( 2p)     0.96545       0.14293
    30    C    6  pz     Val( 2p)     1.10392      -0.02415

    31    C    7  S      Cor( 1S)     1.99996     -11.05704
    32    C    7  S      Val( 2S)     1.07908      -0.24746
    33    C    7  px     Val( 2p)     0.93982       0.10931
    34    C    7  py     Val( 2p)     0.84905       0.16977
    35    C    7  pz     Val( 2p)     0.89077      -0.00268

    36    O    8  S      Cor( 1S)     1.99999     -20.20843
    37    O    8  S      Val( 2S)     1.73641      -1.02239
    38    O    8  px     Val( 2p)     1.18361      -0.07141
    39    O    8  py     Val( 2p)     1.57055      -0.25305
    40    O    8  pz     Val( 2p)     1.76443      -0.32815

    41    C    9  S      Cor( 1S)     1.99988     -11.06089
    42    C    9  S      Val( 2S)     1.08900      -0.24353
    43    C    9  px     Val( 2p)     0.86674       0.08115
    44    C    9  py     Val( 2p)     0.93458       0.07410
    45    C    9  pz     Val( 2p)     0.95473       0.07230

    46    C   10  S      Cor( 1S)     1.99997     -11.00719
    47    C   10  S      Val( 2S)     1.10307      -0.23607
    48    C   10  px     Val( 2p)     0.98745       0.06711
    49    C   10  py     Val( 2p)     0.99537       0.05760
    50    C   10  pz     Val( 2p)     1.00725       0.06842

    51    C   11  S      Cor( 1S)     1.99996     -10.98999
    52    C   11  S      Val( 2S)     1.08980      -0.20781
    53    C   11  px     Val( 2p)     0.97347       0.08339
    54    C   11  py     Val( 2p)     0.99754       0.07804
    55    C   11  pz     Val( 2p)     1.02712       0.07197

    56    C   12  S      Cor( 1S)     1.99994     -11.01481
    57    C   12  S      Val( 2S)     1.07180      -0.19870
    58    C   12  px     Val( 2p)     0.99292       0.07375
    59    C   12  py     Val( 2p)     0.91416       0.09780
    60    C   12  pz     Val( 2p)     0.97847       0.08901

    61    N   13  S      Cor( 1S)     1.99999     -15.24291
    62    N   13  S      Val( 2S)     1.44240      -0.59335
    63    N   13  px     Val( 2p)     1.08883       0.02322
    64    N   13  py     Val( 2p)     1.05535       0.04378
    65    N   13  pz     Val( 2p)     1.69278      -0.20920

    66    C   14  S      Cor( 1S)     1.99993     -11.02335
    67    C   14  S      Val( 2S)     1.08274      -0.21210
    68    C   14  px     Val( 2p)     0.89736       0.11416
    69    C   14  py     Val( 2p)     0.91867       0.09566
    70    C   14  pz     Val( 2p)     1.00428       0.07899

    71    C   15  S      Cor( 1S)     1.99997     -10.97717
    72    C   15  S      Val( 2S)     1.08506      -0.19348
    73    C   15  px     Val( 2p)     0.97938       0.08647
    74    C   15  py     Val( 2p)     1.00262       0.08790
    75    C   15  pz     Val( 2p)     1.00740       0.08989

    76    C   16  S      Cor( 1S)     1.99998     -10.97804
    77    C   16  S      Val( 2S)     1.07777      -0.18856
    78    C   16  px     Val( 2p)     0.98436       0.08877
    79    C   16  py     Val( 2p)     0.98140       0.09034
    80    C   16  pz     Val( 2p)     1.02572       0.08557

    81    C   17  S      Cor( 1S)     1.99994     -11.00575
    82    C   17  S      Val( 2S)     1.07438      -0.19342
    83    C   17  px     Val( 2p)     0.94398       0.09716
    84    C   17  py     Val( 2p)     0.96692       0.08089
    85    C   17  pz     Val( 2p)     0.97671       0.09684

    86    O   18  S      Cor( 1S)     1.99999     -20.11486
    87    O   18  S      Val( 2S)     1.80464      -1.06316
    88    O   18  px     Val( 2p)     1.90938      -0.35082
    89    O   18  py     Val( 2p)     1.35215      -0.11939
    90    O   18  pz     Val( 2p)     1.17487      -0.11108

    91    C   19  S      Cor( 1S)     1.99997     -10.97672
    92    C   19  S      Val( 2S)     1.07793      -0.18705
    93    C   19  px     Val( 2p)     1.04235       0.07130
    94    C   19  py     Val( 2p)     0.98293       0.08435
    95    C   19  pz     Val( 2p)     1.04344       0.07158

    96    H   20  S      Val( 1S)     0.95162       0.04790

    97    H   21  S      Val( 1S)     0.97837       0.03477

    98    H   22  S      Val( 1S)     0.97549       0.06336

    99    H   23  S      Val( 1S)     0.96785       0.06700

   100    H   24  S      Val( 1S)     0.96110       0.06125

   101    H   25  S      Val( 1S)     0.95555       0.07340

   102    H   26  S      Val( 1S)     0.94906       0.07023

   103    H   27  S      Val( 1S)     0.95686       0.06902

   104    H   28  S      Val( 1S)     0.98785       0.05218

   105    H   29  S      Val( 1S)     0.96397       0.06223

   106    H   30  S      Val( 1S)     0.97046       0.06282

   107    H   31  S      Val( 1S)     0.95209       0.08178

   108    H   32  S      Val( 1S)     0.96252       0.06851

   109    H   33  S      Val( 1S)     0.96114       0.07254

   110    H   34  S      Val( 1S)     0.98338       0.05541

   111    H   35  S      Val( 1S)     0.96841       0.06860

   112    H   36  S      Val( 1S)     0.94258       0.07942

   113    H   37  S      Val( 1S)     0.95516       0.07339

   114    H   38  S      Val( 1S)     0.93919       0.08301


 Summary of Natural Population Analysis:                  
                                                          
                                       Natural Population 
                Natural  -----------------------------------------------
    Atom  No    Charge         Core      Valence    Rydberg      Total
 -----------------------------------------------------------------------
      C    1    0.07580      1.99991     3.92429    0.00000     5.92420
      C    2   -0.07443      1.99995     4.07449    0.00000     6.07443
      C    3   -0.00677      1.99994     4.00683    0.00000     6.00677
      C    4   -0.09651      1.99994     4.09657    0.00000     6.09651
      C    5    0.18710      1.99978     3.81312    0.00000     5.81290
      C    6   -0.13006      1.99991     4.13015    0.00000     6.13006
      C    7    0.24132      1.99996     3.75872    0.00000     5.75868
      O    8   -0.25500      1.99999     6.25500    0.00000     8.25500
      C    9    0.15506      1.99988     3.84506    0.00000     5.84494
      C   10   -0.09311      1.99997     4.09314    0.00000     6.09311
      C   11   -0.08788      1.99996     4.08792    0.00000     6.08788
      C   12    0.04271      1.99994     3.95735    0.00000     5.95729
      N   13   -0.27934      1.99999     5.27935    0.00000     7.27934
      C   14    0.09701      1.99993     3.90305    0.00000     5.90299
      C   15   -0.07442      1.99997     4.07445    0.00000     6.07442
      C   16   -0.06923      1.99998     4.06925    0.00000     6.06923
      C   17    0.03806      1.99994     3.96200    0.00000     5.96194
      O   18   -0.24103      1.99999     6.24104    0.00000     8.24103
      C   19   -0.14663      1.99997     4.14666    0.00000     6.14663
      H   20    0.04838      0.00000     0.95162    0.00000     0.95162
      H   21    0.02163      0.00000     0.97837    0.00000     0.97837
      H   22    0.02451      0.00000     0.97549    0.00000     0.97549
      H   23    0.03215      0.00000     0.96785    0.00000     0.96785
      H   24    0.03890      0.00000     0.96110    0.00000     0.96110
      H   25    0.04445      0.00000     0.95555    0.00000     0.95555
      H   26    0.05094      0.00000     0.94906    0.00000     0.94906
      H   27    0.04314      0.00000     0.95686    0.00000     0.95686
      H   28    0.01215      0.00000     0.98785    0.00000     0.98785
      H   29    0.03603      0.00000     0.96397    0.00000     0.96397
      H   30    0.02954      0.00000     0.97046    0.00000     0.97046
      H   31    0.04791      0.00000     0.95209    0.00000     0.95209
      H   32    0.03748      0.00000     0.96252    0.00000     0.96252
      H   33    0.03886      0.00000     0.96114    0.00000     0.96114
      H   34    0.01662      0.00000     0.98338    0.00000     0.98338
      H   35    0.03159      0.00000     0.96841    0.00000     0.96841
      H   36    0.05742      0.00000     0.94258    0.00000     0.94258
      H   37    0.04484      0.00000     0.95516    0.00000     0.95516
      H   38    0.06081      0.00000     0.93919    0.00000     0.93919
 =======================================================================
   * Total *   -0.00000     37.99890   100.00110    0.00000   138.00000

                                 Natural Population      
 --------------------------------------------------------
   Core                      37.99890 ( 99.9971% of  38)
   Valence                  100.00110 (100.0011% of 100)
   Natural Minimal Basis    138.00000 (100.0000% of 138)
   Natural Rydberg Basis      0.00000 (  0.0000% of 138)
 --------------------------------------------------------

    Atom  No          Natural Electron Configuration
 ----------------------------------------------------------------------------
      C    1      [core]2S( 1.08)2p( 2.84)
      C    2      [core]2S( 1.08)2p( 2.99)
      C    3      [core]2S( 1.08)2p( 2.93)
      C    4      [core]2S( 1.08)2p( 3.02)
      C    5      [core]2S( 1.06)2p( 2.75)
      C    6      [core]2S( 1.09)2p( 3.04)
      C    7      [core]2S( 1.08)2p( 2.68)
      O    8      [core]2S( 1.74)2p( 4.52)
      C    9      [core]2S( 1.09)2p( 2.76)
      C   10      [core]2S( 1.10)2p( 2.99)
      C   11      [core]2S( 1.09)2p( 3.00)
      C   12      [core]2S( 1.07)2p( 2.89)
      N   13      [core]2S( 1.44)2p( 3.84)
      C   14      [core]2S( 1.08)2p( 2.82)
      C   15      [core]2S( 1.09)2p( 2.99)
      C   16      [core]2S( 1.08)2p( 2.99)
      C   17      [core]2S( 1.07)2p( 2.89)
      O   18      [core]2S( 1.80)2p( 4.44)
      C   19      [core]2S( 1.08)2p( 3.07)
      H   20            1S( 0.95)
      H   21            1S( 0.98)
      H   22            1S( 0.98)
      H   23            1S( 0.97)
      H   24            1S( 0.96)
      H   25            1S( 0.96)
      H   26            1S( 0.95)
      H   27            1S( 0.96)
      H   28            1S( 0.99)
      H   29            1S( 0.96)
      H   30            1S( 0.97)
      H   31            1S( 0.95)
      H   32            1S( 0.96)
      H   33            1S( 0.96)
      H   34            1S( 0.98)
      H   35            1S( 0.97)
      H   36            1S( 0.94)
      H   37            1S( 0.96)
      H   38            1S( 0.94)


 NATURAL BOND ORBITAL ANALYSIS:

                       Occupancies       Lewis Structure    Low   High
           Occ.    -------------------  -----------------   occ   occ
  Cycle   Thresh.   Lewis   Non-Lewis     CR  BD  3C  LP    (L)   (NL)   Dev
 =============================================================================
   1(1)    1.90   134.43661   3.56339     19  43   0   7     3      3    0.45
   2(2)    1.90   134.43661   3.56339     19  43   0   7     3      3    0.45
   3(1)    1.80   134.35296   3.64704     19  42   0   8     3      3    0.45
   4(2)    1.80   134.35296   3.64704     19  42   0   8     3      3    0.45
   5(1)    1.70   134.35296   3.64704     19  42   0   8     3      3    0.45
   6(2)    1.70   134.35296   3.64704     19  42   0   8     3      3    0.45
   7(1)    1.60   135.52538   2.47462     19  44   0   6     1      3    0.43
   8(2)    1.60   136.10132   1.89868     19  45   0   5     0      3    0.45
   9(3)    1.60   136.12777   1.87223     19  45   0   5     0      3    0.43
  10(4)    1.60   136.10132   1.89868     19  45   0   5     0      3    0.45
  11(5)    1.60   136.12777   1.87223     19  45   0   5     0      3    0.43
  12(1)    1.50   136.12777   1.87223     19  45   0   5     0      3    0.43
  13(2)    1.50   136.10132   1.89868     19  45   0   5     0      3    0.45
  14(3)    1.50   136.12777   1.87223     19  45   0   5     0      3    0.43
  15(1)    1.60   136.12777   1.87223     19  45   0   5     0      3    0.43
 -----------------------------------------------------------------------------

 Structure accepted: RESONANCE keyword permits strongly delocalized structure

 --------------------------------------------------------
   Core                     37.99889 ( 99.997% of  38)
   Valence Lewis            98.12888 ( 98.129% of 100)
  ==================       ============================
   Total Lewis             136.12777 ( 98.643% of 138)
  -----------------------------------------------------
   Valence non-Lewis         1.87223 (  1.357% of 138)
   Rydberg non-Lewis         0.00000 (  0.000% of 138)
  ==================       ============================
   Total non-Lewis           1.87223 (  1.357% of 138)
 --------------------------------------------------------


       (Occupancy)   Bond orbital/ Coefficients/ Hybrids
 ---------------------------------------------------------------------------------
     1. (1.98525) BD ( 1) C   1 - C   2  
                ( 50.03%)   0.7074* C   1 s( 33.73%)p 1.96( 66.27%)
                                            0.0000  0.5808  0.7112 -0.3858 -0.0899
                ( 49.97%)   0.7069* C   2 s( 34.48%)p 1.90( 65.52%)
                                            0.0001  0.5872 -0.7014  0.3923  0.0967
     2. (1.65742) BD ( 2) C   1 - C   2  
                ( 45.54%)   0.6749* C   1 s(  0.00%)p 1.00(100.00%)
                                           -0.0000 -0.0009  0.0734 -0.0973  0.9925
                ( 54.46%)   0.7379* C   2 s(  0.00%)p 1.00(100.00%)
                                           -0.0000 -0.0001  0.0768 -0.1069  0.9913
     3. (1.98106) BD ( 1) C   1 - C   6  
                ( 49.46%)   0.7033* C   1 s( 34.59%)p 1.89( 65.41%)
                                            0.0001  0.5881 -0.6992 -0.4063  0.0124
                ( 50.54%)   0.7109* C   6 s( 35.76%)p 1.80( 64.24%)
                                            0.0000  0.5980  0.6663  0.4454 -0.0015
     4. (1.98734) BD ( 1) C   1 - C  19  
                ( 50.15%)   0.7082* C   1 s( 31.68%)p 2.16( 68.32%)
                                           -0.0000  0.5629 -0.0031  0.8225  0.0814
                ( 49.85%)   0.7060* C  19 s( 25.58%)p 2.91( 74.42%)
                                            0.0001  0.5058 -0.0180 -0.8585 -0.0826
     5. (1.98975) BD ( 1) C   2 - C   3  
                ( 49.56%)   0.7040* C   2 s( 34.20%)p 1.92( 65.80%)
                                            0.0001  0.5848  0.0266 -0.8059 -0.0889
                ( 50.44%)   0.7102* C   3 s( 34.33%)p 1.91( 65.67%)
                                            0.0000  0.5860 -0.0131  0.8050  0.0918
     6. (1.98876) BD ( 1) C   2 - H  23  
                ( 51.63%)   0.7185* C   2 s( 31.33%)p 2.19( 68.67%)
                                           -0.0001  0.5597  0.7081  0.4304 -0.0084
[...]
   16      -9.9398      -10.3865       0.4467       -10.6049       0.6651
   17    -117.3019     -127.3562      10.0542      -126.7422       9.4402
   18     -24.1048      -49.1109      25.0061       -49.2007      25.0959
   20      -0.8678       -1.0226       0.1548        -1.1254       0.2576
   23      -0.2913       -0.4087       0.1174        -1.2291       0.9378
   37      -0.2873       -1.2566       0.9693        -1.0174       0.7301
   43      -0.3780       -1.7458       1.3678        -1.3349       0.9568
   45      -0.3647       -1.8090       1.4443        -1.3252       0.9605
   63     271.9358       -0.0054     271.9412        -0.0053     271.9412
   68     -34.1714      -69.2682      35.0968       -69.1761      35.0048
   69    -412.6237     -449.7594      37.1357      -452.2304      39.6067
 Sum     -338.2875     -725.2423     386.9548      -728.7154     390.4279

 Contributions to Isotropic shielding for atom   19 (   218.2477 ppm):
                         Standard Origin              Atomic Origin
 NLMO      Total    Paramagnetic  Diamagnetic   Paramagnetic  Diamagnetic
    1      -1.9407       -1.3464      -0.5943        -2.4218       0.4811
    2      -0.9400       -0.7802      -0.1598        -2.5910       1.6510
    3      -1.0015       -1.4883       0.4869        -1.2984       0.2969
    4       3.7574      -10.7975      14.5549        -3.1958       6.9532
    6      -0.6716       -1.6350       0.9634        -1.7077       1.0361
    8       0.8470       -0.3388       1.1858        -0.3380       1.1850
   15      -0.3692        0.0749      -0.4441        -1.2369       0.8677
   17      -0.4445       -0.2356      -0.2089        -1.1809       0.7364
   18       0.2229        0.3141      -0.0912        -1.2510       1.4740
   43       6.9886       -5.8779      12.8666        -4.4401      11.4287
   44       4.0089        5.4952      -1.4862        -7.1814      11.1904
   45       7.3002       -4.5381      11.8383        -4.1421      11.4423
   64     200.0788       -0.0033     200.0821         0.0032     200.0756
 Sum      217.8365      -21.1570     238.9935       -30.9819     248.8184

 Contributions to Isotropic shielding for atom   20 (    31.5078 ppm):
                         Standard Origin              Atomic Origin
 NLMO      Total    Paramagnetic  Diamagnetic   Paramagnetic  Diamagnetic
   13       0.1318       -0.6563       0.7880        -1.1946       1.3264
   16       1.9942        1.3472       0.6471         1.2338       0.7604
   19       0.0537       -0.5896       0.6433        -1.1444       1.1981
   20       1.3483        0.8943       0.4540         0.7990       0.5492
   23       1.0482        1.1935      -0.1453         0.2668       0.7814
   24      25.7515        0.1382      25.6133         0.3391      25.4124
   29      -0.2128       -1.2372       1.0244        -0.8208       0.6081
   36      -0.1240       -1.3383       1.2143        -0.9266       0.8025
 Sum       29.9908       -0.2483      30.2391        -1.4477      31.4385

 Contributions to Isotropic shielding for atom   21 (    31.1689 ppm):
                         Standard Origin              Atomic Origin
 NLMO      Total    Paramagnetic  Diamagnetic   Paramagnetic  Diamagnetic
   13       0.0968       -0.5921       0.6889        -1.2417       1.3385
   19       0.8162        0.5049       0.3113        -0.5684       1.3846
   20       1.0965       -0.3567       1.4532         0.3123       0.7841
   21       0.4016        0.7394      -0.3377        -0.8142       1.2159
   22      26.2054        0.3553      25.8502         0.7324      25.4730
   27      -0.0892       -1.5295       1.4403        -1.2953       1.2061
 Sum       28.5273       -0.8788      29.4061        -2.8749      31.4022

 Contributions to Isotropic shielding for atom   22 (    31.3104 ppm):
                         Standard Origin              Atomic Origin
 NLMO      Total    Paramagnetic  Diamagnetic   Paramagnetic  Diamagnetic
   17      -0.1463       -0.3105       0.1643        -1.0184       0.8722
   18       0.0844       -0.3009       0.3852        -1.3084       1.3928
   23       1.3288       -0.5580       1.8868         0.4355       0.8933
   31       0.7807        1.0920      -0.3113        -0.6220       1.4027
   33       0.6594        1.1091      -0.4497        -0.2957       0.9551
   34      26.1810        0.1726      26.0085         0.5434      25.6377
   37       0.0581       -0.9152       0.9733        -0.9574       1.0154
   38       0.1836       -1.1267       1.3104        -0.6539       0.8376
   40      -0.0063       -1.2705       1.2641        -0.7920       0.7857
 Sum       29.1234       -2.1082      31.2315        -4.6690      33.7924

 Contributions to Isotropic shielding for atom   23 (    25.8974 ppm):
                         Standard Origin              Atomic Origin
 NLMO      Total    Paramagnetic  Diamagnetic   Paramagnetic  Diamagnetic
    1      -1.4058       -2.7747       1.3689        -1.9847       0.5789
    2       0.8125        1.6267      -0.8142        -2.5489       3.3614
    4      -0.7043        0.8220      -1.5262        -1.7776       1.0733
    5      -2.0446       -1.1943      -0.8503        -2.7522       0.7076
    6      27.0316        0.9449      26.0868         1.5524      25.4792
    9      -0.0797       -0.1608       0.0811        -1.1848       1.1051
   13       0.5420        0.9057      -0.3637        -0.7100       1.2520
   44      -0.1242       -1.2705       1.1463        -0.9053       0.7811
 Sum       24.0276       -1.1011      25.1287       -10.3112      34.3388

 Contributions to Isotropic shielding for atom   24 (    25.2858 ppm):
                         Standard Origin              Atomic Origin
 NLMO      Total    Paramagnetic  Diamagnetic   Paramagnetic  Diamagnetic
    2       1.2749        0.8582       0.4166         0.2095       1.0654
    5      -2.0889       -1.9274      -0.1615        -2.8337       0.7449
    6      -0.1060        0.1107      -0.2168        -1.2355       1.1295
    7      -1.8934       -2.6463       0.7529        -2.6189       0.7255
    8       0.4661        1.4080      -0.9420        -2.3567       2.8228
    9      26.9048        1.0986      25.8062         1.6114      25.2935
   11      -0.1138        0.6785      -0.7923        -1.2208       1.1070
   13       0.4622        0.8000      -0.3378        -0.9159       1.3781
 Sum       24.9058        0.3804      24.5255        -9.3607      34.2666

 Contributions to Isotropic shielding for atom   25 (    25.7016 ppm):
                         Standard Origin              Atomic Origin
 NLMO      Total    Paramagnetic  Diamagnetic   Paramagnetic  Diamagnetic
    2       1.2604       -0.4437       1.7042         0.0326       1.2278
    7      -1.8222       -0.9091      -0.9130        -2.5054       0.6832
    8       0.1645        0.0792       0.0853        -3.2363       3.4008
    9      -0.0495       -0.9998       0.9503        -1.1466       1.0971
   10      -0.8866       -2.5678       1.6812        -1.4419       0.5553
   11      26.5302        1.0738      25.4564         1.3163      25.2139
   14      -0.5086        0.4965      -1.0051        -2.1334       1.6248
 Sum       24.6883       -3.2710      27.9593        -9.1147      33.8030

 Contributions to Isotropic shielding for atom   26 (    31.3765 ppm):
                         Standard Origin              Atomic Origin
 NLMO      Total    Paramagnetic  Diamagnetic   Paramagnetic  Diamagnetic
   19      -0.1019        0.5115      -0.6134        -1.9582       1.8563
   21       1.5066        0.0127       1.4939         0.6940       0.8125
   25       0.9620        1.6027      -0.6407        -0.0047       0.9667
   26      25.9251        0.1227      25.8024         0.5105      25.4146
   27       2.0006        2.1644      -0.1637         0.2096       1.7910
   29       0.1809       -0.4244       0.6053        -0.8216       1.0025
   65      -0.4538       -0.2922      -0.1615         0.6184      -1.0721
 Sum       30.0196        3.6974      26.3222        -0.7520      30.7716

 Contributions to Isotropic shielding for atom   27 (    31.3990 ppm):
                         Standard Origin              Atomic Origin
 NLMO      Total    Paramagnetic  Diamagnetic   Paramagnetic  Diamagnetic
   21       1.4240       -0.0347       1.4586         0.5139       0.9101
   22      -0.2396        0.3244      -0.5640        -1.4565       1.2169
   25       0.9855        1.6825      -0.6970        -0.0298       1.0153
   26       1.9840        2.0675      -0.0835         0.0855       1.8985
   27      26.0906       -0.0965      26.1870         0.4670      25.6236
   28       0.1363       -0.5400       0.6762        -0.9010       1.0372
   30       0.0808       -0.3770       0.4579        -0.9291       1.0099
 Sum       30.4615        3.0262      27.4353        -2.2500      32.7115

 Contributions to Isotropic shielding for atom   28 (    32.3435 ppm):
                         Standard Origin              Atomic Origin
 NLMO      Total    Paramagnetic  Diamagnetic   Paramagnetic  Diamagnetic
   20      -0.1805        0.1994      -0.3799        -1.0226       0.8420
   23      -0.1349        0.1639      -0.2988        -1.0139       0.8789
   25       1.2689       -0.5941       1.8630         0.3411       0.9278
   26       0.1245       -0.0553       0.1798        -0.8804       1.0049
   28       1.1443       -0.2173       1.3616         0.4757       0.6686
   29      26.6778        0.4780      26.1997         0.6354      26.0424
   30       1.6576        2.0766      -0.4189        -0.1642       1.8218
   41       0.0273       -1.4764       1.5037        -0.7506       0.7779
 Sum       30.5850        0.5748      30.0101        -2.3793      32.9642

 Contributions to Isotropic shielding for atom   29 (    31.5454 ppm):
                         Standard Origin              Atomic Origin
 NLMO      Total    Paramagnetic  Diamagnetic   Paramagnetic  Diamagnetic
   25       0.7744        1.1502      -0.3758        -0.2733       1.0476
   27       0.1673        0.4843      -0.3170        -0.9091       1.0764
   28       0.5718        1.4771      -0.9053        -0.6543       1.2261
   29       1.6822        1.2960       0.3862        -0.0010       1.6833
   30      26.3289        0.0620      26.2669         0.7443      25.5846
   32      -0.2300        0.4414      -0.6714        -1.2170       0.9870
 Sum       29.2946        4.9111      24.3835        -2.3104      31.6050

 Contributions to Isotropic shielding for atom   30 (    32.3491 ppm):
                         Standard Origin              Atomic Origin
 NLMO      Total    Paramagnetic  Diamagnetic   Paramagnetic  Diamagnetic
   18       0.0391       -0.1905       0.2296        -1.1373       1.1764
   23      -0.2043       -0.0410      -0.1633        -1.1739       0.9696
   24      -0.1782        0.1088      -0.2869        -1.0544       0.8763
   33       1.7650       -0.9182       2.6832         1.1807       0.5843
   35       0.6284        1.9493      -1.3209        -0.1468       0.7752
   36      26.3584        0.2500      26.1083         0.4156      25.9427
   37       2.0760        0.7864       1.2896         0.2669       1.8092
   38       0.2959       -1.2299       1.5258        -0.3952       0.6912
   39       0.1346       -1.2299       1.3644        -0.8455       0.9800
 Sum       30.9149       -0.5149      31.4299        -2.8900      33.8049

 Contributions to Isotropic shielding for atom   31 (    31.2426 ppm):
                         Standard Origin              Atomic Origin
 NLMO      Total    Paramagnetic  Diamagnetic   Paramagnetic  Diamagnetic
   18       0.1249       -0.2721       0.3970        -1.0143       1.1392
   33       1.7173       -0.5508       2.2681         1.0690       0.6483
   34       0.0252        0.1872      -0.1620        -1.0224       1.0476
   35       0.3796        2.2327      -1.8530        -0.4564       0.8360
   36       2.0701        0.5977       1.4724         0.3318       1.7383
   37      25.9586        0.1802      25.7784         0.4772      25.4814
   38       0.2348       -0.8200       1.0548         0.1059       0.1290
   40       0.1715       -1.2345       1.4060        -0.8939       1.0654
 Sum       30.6821        0.3204      30.3617        -1.4032      32.0853

 Contributions to Isotropic shielding for atom   32 (    32.2160 ppm):
                         Standard Origin              Atomic Origin
 NLMO      Total    Paramagnetic  Diamagnetic   Paramagnetic  Diamagnetic
   31      -0.2054        0.3347      -0.5401        -1.1445       0.9390
   35       1.3848       -0.5003       1.8851         0.6259       0.7589
   36       0.0417        0.9881      -0.9464        -1.0356       1.0773
   38       0.7750        1.1782      -0.4032         0.1155       0.6595
   39      26.3229        0.0265      26.2964         0.5242      25.7987
   40       1.9245        2.6768      -0.7523         0.1687       1.7558
   41       0.0293        0.0715      -0.0422        -1.0506       1.0799
 Sum       30.2728        4.7755      25.4972        -1.7963      32.0691

 Contributions to Isotropic shielding for atom   33 (    31.8459 ppm):
                         Standard Origin              Atomic Origin
 NLMO      Total    Paramagnetic  Diamagnetic   Paramagnetic  Diamagnetic
   31      -0.2258        0.4626      -0.6884        -1.3115       1.0857
   35       1.5670       -1.3017       2.8686         0.8146       0.7523
   38       1.0312        0.4166       0.6146         0.3621       0.6691
   39       1.7911        2.9318      -1.1408         0.0130       1.7781
   40      26.1978        0.0974      26.1004         0.4726      25.7252
   42       0.0736       -0.0389       0.1125        -0.9690       1.0426
 Sum       30.4348        2.5678      27.8670        -0.6181      31.0529

 Contributions to Isotropic shielding for atom   34 (    32.2513 ppm):
                         Standard Origin              Atomic Origin
 NLMO      Total    Paramagnetic  Diamagnetic   Paramagnetic  Diamagnetic
   28      -0.4705        0.7397      -1.2101        -1.5305       1.0600
   32       1.7676       -1.7722       3.5398         1.1859       0.5817
   33      -0.1984        0.2480      -0.4464        -1.0321       0.8337
   41      26.7550        0.4791      26.2759         0.8020      25.9530
   42       1.6022        2.4861      -0.8839        -0.2459       1.8482
 Sum       29.4559        2.1806      27.2753        -0.8206      30.2765

 Contributions to Isotropic shielding for atom   35 (    31.4430 ppm):
                         Standard Origin              Atomic Origin
 NLMO      Total    Paramagnetic  Diamagnetic   Paramagnetic  Diamagnetic
   32       1.3069        0.1698       1.1371         0.1204       1.1865
   33      -0.1627        0.3322      -0.4949        -1.0335       0.8708
   38       0.2593        1.8259      -1.5667        -0.6163       0.8755
   40       0.1041        0.0959       0.0082        -0.9590       1.0631
   41       1.4662        1.7650      -0.2988        -0.2330       1.6992
   42      26.4059        0.1642      26.2417         0.7995      25.6064
 Sum       29.3797        4.3530      25.0267        -1.9220      31.3016

 Contributions to Isotropic shielding for atom   36 (    31.2547 ppm):
                         Standard Origin              Atomic Origin
 NLMO      Total    Paramagnetic  Diamagnetic   Paramagnetic  Diamagnetic
    2      -0.8019       -0.5519      -0.2501        -1.6969       0.8950
    4       1.8746       -0.7992       2.6738         1.0078       0.8668
    8       0.5691       -0.2359       0.8050        -0.5264       1.0955
   15      -0.2748        0.2029      -0.4777        -1.1967       0.9219
   18       0.0232        0.2696      -0.2464        -1.2713       1.2945
   43      25.7442        0.2707      25.4735         0.3453      25.3989
   44       1.7979        2.3960      -0.5982        -0.0849       1.8827
   45       2.2195        0.2452       1.9744         0.3948       1.8247
 Sum       31.1517        1.7975      29.3542        -3.0283      34.1800

 Contributions to Isotropic shielding for atom   37 (    30.9968 ppm):
                         Standard Origin              Atomic Origin
 NLMO      Total    Paramagnetic  Diamagnetic   Paramagnetic  Diamagnetic
    1      -0.9941        0.2000      -1.1941        -1.9008       0.9067
    2      -0.7461        0.0525      -0.7986        -2.3536       1.6075
    4       1.0014        0.9679       0.0334         0.2410       0.7603
    6      -0.0030       -1.4941       1.4911        -0.9398       0.9368
   18       0.0606        0.1426      -0.0820        -0.9473       1.0079
   43       2.0466        2.0841      -0.0375         0.0648       1.9818
   44      26.2555       -0.1569      26.4125         0.5253      25.7303
   45       2.1332        2.3436      -0.2104         0.1662       1.9670
 Sum       29.7541        4.1397      25.6144        -5.1442      34.8983

 Contributions to Isotropic shielding for atom   38 (    30.7440 ppm):
                         Standard Origin              Atomic Origin
 NLMO      Total    Paramagnetic  Diamagnetic   Paramagnetic  Diamagnetic
    2      -0.8400       -0.5168      -0.3232        -1.7578       0.9178
    4       1.8357       -0.5922       2.4280         0.9599       0.8758
    8       0.5792       -0.2134       0.7926        -0.5003       1.0794
   15      -0.3165        0.1510      -0.4675        -1.2248       0.9083
   17      -0.4500       -0.2822      -0.1679        -1.0221       0.5720
   18       0.1610        0.2528      -0.0918        -1.1781       1.3391
   43       2.2274        0.2028       2.0246         0.4211       1.8063
   44       1.7894        2.5616      -0.7722        -0.0877       1.8771
   45      25.6645        0.2350      25.4294         0.3399      25.3246
 Sum       30.6506        1.7985      28.8521        -4.0500      34.7006
 
 1\1\GINC-GNOSIE-MM\SP\RHF\STO-3G\C16H19N1O2\MBENIDD\30-Apr-2026\0\\# n
 mr=giao hf/sto-3g pop=nbo\\Title Card Required\\0,1\C,0,0.,0.,0.\C,0,1
 .4071,0.,0.\C,0,2.1279,1.1942,0.\C,0,1.4542,2.4107,-0.0118\C,0,0.0601,
 2.4341,-0.033\C,0,-0.6746,1.2369,-0.0105\C,0,-2.1543,1.3526,0.035\O,0,
 -0.5006,3.6875,-0.0571\C,0,-1.8518,3.6852,-0.5415\C,0,-2.6942,2.7408,0
 .3073\C,0,-2.3724,5.1281,-0.5261\C,0,-3.6318,5.2905,0.32\N,0,-4.6433,4
 .3067,-0.0583\C,0,-4.1713,2.9008,-0.0591\C,0,-5.1318,2.1539,0.8694\C,0
 ,-6.3943,2.9894,0.8091\C,0,-5.8417,4.3994,0.7861\O,0,-2.8815,0.3738,-0
 .0971\C,0,-0.7112,-1.3255,0.0212\H,0,-2.5385,2.933,1.3784\H,0,-1.8261,
 3.3559,-1.5918\H,0,-4.3309,2.5229,-1.0788\H,0,1.9557,-0.9408,0.0079\H,
 0,3.2149,1.174,0.0074\H,0,2.0141,3.3423,-0.016\H,0,-1.6028,5.8245,-0.1
 722\H,0,-2.6041,5.4258,-1.5576\H,0,-3.3686,5.2024,1.3823\H,0,-4.0278,6
 .3023,0.172\H,0,-4.7517,2.1295,1.8981\H,0,-5.3197,1.1258,0.5461\H,0,-7
 .0531,2.8098,1.6635\H,0,-6.9511,2.7754,-0.1112\H,0,-5.593,4.7023,1.811
 3\H,0,-6.5636,5.1144,0.38\H,0,-1.3493,-1.4056,0.9069\H,0,-0.0022,-2.15
 99,0.0633\H,0,-1.3058,-1.456,-0.8882\\Version=EM64L-G16RevB.01\State=1
 -A\HF=-811.0569091\RMSD=6.503e-09\Dipole=0.1505283,0.1436659,0.3168153
 \Quadrupole=0.6719944,-1.0058776,0.3338833,-2.7284851,-2.2792816,0.760
 893\PG=C01 [X(C16H19N1O2)]\\@


 ADAM SMITH SAID, "THE REAL PRICE OF ANYTHING IS THE TOIL AND TROUBLE
 OF ACQUIRING IT."  BUT IN ALL UNDERTAKINGS WITH NATURE WE SHOULD FIRST
 READ CAREFULLY THE SMALL PRINT IN THE CONTRACT. THIS MIGHT DISCLOSE
 THAT THE REAL PRICE IS TO BE PAID BY THOSE WHO INHERIT THE DEPLETION
 AND DESPOILATION THAT FOLLOWS.
                               -- E. R. HARRISON IN "COSMOLOGY" (1980)
 Job cpu time:       0 days  0 hours  3 minutes 38.6 seconds.
 Elapsed time:       0 days  0 hours  1 minutes 56.5 seconds.
 File lengths (MBytes):  RWF=     14 Int=      0 D2E=      0 Chk=      2 Scr=      1
 Normal termination of Gaussian 16 at Thu Apr 30 09:17:28 2026.
