 Entering Gaussian System, Link 0=g16
 Input=1_elaeocarpine_c_4.gjf
 Output=1_elaeocarpine_c_4.log
 Initial command:
 /opt/gaussian/g16/l1.exe "/home/mbenidd/Bureau/Elaeocarpines/HF_NMR/Elaeocarpine/1_elaeocarpine_c_4/Gau-12832.inp" -scrdir="/home/mbenidd/Bureau/Elaeocarpines/HF_NMR/Elaeocarpine/1_elaeocarpine_c_4/"
 Entering Link 1 = /opt/gaussian/g16/l1.exe PID=     12834.
  
 Copyright (c) 1988-2017, Gaussian, Inc.  All Rights Reserved.
  
 This is part of the Gaussian(R) 16 program.  It is based on
 the Gaussian(R) 09 system (copyright 2009, Gaussian, Inc.),
 the Gaussian(R) 03 system (copyright 2003, Gaussian, Inc.),
 the Gaussian(R) 98 system (copyright 1998, Gaussian, Inc.),
 the Gaussian(R) 94 system (copyright 1995, Gaussian, Inc.),
 the Gaussian 92(TM) system (copyright 1992, Gaussian, Inc.),
 the Gaussian 90(TM) system (copyright 1990, Gaussian, Inc.),
 the Gaussian 88(TM) system (copyright 1988, Gaussian, Inc.),
 the Gaussian 86(TM) system (copyright 1986, Carnegie Mellon
 University), and the Gaussian 82(TM) system (copyright 1983,
 Carnegie Mellon University). Gaussian is a federally registered
 trademark of Gaussian, Inc.
  
 This software contains proprietary and confidential information,
 including trade secrets, belonging to Gaussian, Inc.
  
 This software is provided under written license and may be
 used, copied, transmitted, or stored only in accord with that
 written license.
  
 The following legend is applicable only to US Government
 contracts under FAR:
  
                    RESTRICTED RIGHTS LEGEND
  
 Use, reproduction and disclosure by the US Government is
 subject to restrictions as set forth in subparagraphs (a)
 and (c) of the Commercial Computer Software - Restricted
 Rights clause in FAR 52.227-19.
  
 Gaussian, Inc.
 340 Quinnipiac St., Bldg. 40, Wallingford CT 06492
  
  
 ---------------------------------------------------------------
 Warning -- This program may not be used in any manner that
 competes with the business of Gaussian, Inc. or will provide
 assistance to any competitor of Gaussian, Inc.  The licensee
 of this program is prohibited from giving any competitor of
 Gaussian, Inc. access to this program.  By using this program,
 the user acknowledges that Gaussian, Inc. is engaged in the
 business of creating and licensing software in the field of
 computational chemistry and represents and warrants to the
 licensee that it is not a competitor of Gaussian, Inc. and that
 it will not use this program in any manner prohibited above.
 ---------------------------------------------------------------
  

 Cite this work as:
 Gaussian 16, Revision B.01,
 M. J. Frisch, G. W. Trucks, H. B. Schlegel, G. E. Scuseria, 
 M. A. Robb, J. R. Cheeseman, G. Scalmani, V. Barone, 
 G. A. Petersson, H. Nakatsuji, X. Li, M. Caricato, A. V. Marenich, 
 J. Bloino, B. G. Janesko, R. Gomperts, B. Mennucci, H. P. Hratchian, 
 J. V. Ortiz, A. F. Izmaylov, J. L. Sonnenberg, D. Williams-Young, 
 F. Ding, F. Lipparini, F. Egidi, J. Goings, B. Peng, A. Petrone, 
 T. Henderson, D. Ranasinghe, V. G. Zakrzewski, J. Gao, N. Rega, 
 G. Zheng, W. Liang, M. Hada, M. Ehara, K. Toyota, R. Fukuda, 
 J. Hasegawa, M. Ishida, T. Nakajima, Y. Honda, O. Kitao, H. Nakai, 
 T. Vreven, K. Throssell, J. A. Montgomery, Jr., J. E. Peralta, 
 F. Ogliaro, M. J. Bearpark, J. J. Heyd, E. N. Brothers, K. N. Kudin, 
 V. N. Staroverov, T. A. Keith, R. Kobayashi, J. Normand, 
 K. Raghavachari, A. P. Rendell, J. C. Burant, S. S. Iyengar, 
 J. Tomasi, M. Cossi, J. M. Millam, M. Klene, C. Adamo, R. Cammi, 
 J. W. Ochterski, R. L. Martin, K. Morokuma, O. Farkas, 
 J. B. Foresman, and D. J. Fox, Gaussian, Inc., Wallingford CT, 2016.
 
 ******************************************
 Gaussian 16:  EM64L-G16RevB.01 20-Dec-2017
                30-Apr-2026 
 ******************************************
 %nprocshared=4
 Will use up to    4 processors via shared memory.
 ----------------------------
 # nmr=giao hf/sto-3g pop=nbo
 ----------------------------
 1/38=1,172=1/1;
 2/12=2,17=6,18=5,40=1/2;
 3/6=3,11=9,25=1,30=1/1,2,3,8;
 4//1;
 5/5=2,38=5/2;
 8/6=1,10=90,11=11/1;
 10/13=100,45=16/2;
 6/7=2,8=2,9=2,10=2,28=1,40=1,64=1/1,7;
 99/9=1/99;
 -------------------
 Title Card Required
 -------------------
 Symbolic Z-matrix:
 Charge =  0 Multiplicity = 1
 C                     0.        0.        0. 
 C                     1.4074    0.        0. 
 C                     2.1276    1.1937    0. 
 C                     1.4521    2.4086   -0.0115 
 C                     0.0574    2.4314   -0.0314 
 C                    -0.6774    1.2368   -0.0059 
 C                    -2.156     1.3486    0.0513 
 O                    -0.501     3.6828   -0.0513 
 C                    -1.832     3.6943   -0.5815 
 C                    -2.7263    2.7446    0.1982 
 C                    -2.3456    5.1387   -0.5105 
 C                    -3.7986    5.233    -0.0476 
 N                    -4.6049    4.2004   -0.6975 
 C                    -4.1629    2.8251   -0.3477 
 C                    -5.2034    2.2728    0.6413 
 C                    -6.1536    3.4238    0.9126 
 C                    -6.0227    4.2851   -0.3249 
 O                    -2.8761    0.3539    0.04 
 C                    -0.7071   -1.3281    0.0188 
 H                    -2.6936    2.9872    1.2695 
 H                    -1.7792    3.4002   -1.6409 
 H                    -4.2285    2.2318   -1.2704 
 H                     1.9563   -0.9406    0.0075 
 H                     3.2146    1.1746    0.0071 
 H                     2.0109    3.3411   -0.0157 
 H                    -1.7188    5.7497    0.1509 
 H                    -2.2516    5.587    -1.5085 
 H                    -3.8449    5.1533    1.0461 
 H                    -4.1771    6.2289   -0.3083 
 H                    -4.7721    1.8959    1.5742 
 H                    -5.7531    1.4481    0.1713 
 H                    -7.1794    3.0816    1.0781 
 H                    -5.8314    3.975     1.8038 
 H                    -6.3734    5.3101   -0.1635 
 H                    -6.6248    3.8625   -1.1387 
 H                    -1.3039   -1.4327    0.9301 
 H                     0.0045   -2.1613    0.0052 
 H                    -1.3412   -1.4383   -0.8664 
 
                          Input orientation:                          
 ---------------------------------------------------------------------
 Center     Atomic      Atomic             Coordinates (Angstroms)
 Number     Number       Type             X           Y           Z
 ---------------------------------------------------------------------
      1          6           0        0.000000    0.000000    0.000000
      2          6           0        1.407400    0.000000    0.000000
      3          6           0        2.127600    1.193700    0.000000
      4          6           0        1.452100    2.408600   -0.011500
      5          6           0        0.057400    2.431400   -0.031400
      6          6           0       -0.677400    1.236800   -0.005900
      7          6           0       -2.156000    1.348600    0.051300
      8          8           0       -0.501000    3.682800   -0.051300
      9          6           0       -1.832000    3.694300   -0.581500
     10          6           0       -2.726300    2.744600    0.198200
     11          6           0       -2.345600    5.138700   -0.510500
     12          6           0       -3.798600    5.233000   -0.047600
     13          7           0       -4.604900    4.200400   -0.697500
     14          6           0       -4.162900    2.825100   -0.347700
     15          6           0       -5.203400    2.272800    0.641300
     16          6           0       -6.153600    3.423800    0.912600
     17          6           0       -6.022700    4.285100   -0.324900
     18          8           0       -2.876100    0.353900    0.040000
     19          6           0       -0.707100   -1.328100    0.018800
     20          1           0       -2.693600    2.987200    1.269500
     21          1           0       -1.779200    3.400200   -1.640900
     22          1           0       -4.228500    2.231800   -1.270400
     23          1           0        1.956300   -0.940600    0.007500
     24          1           0        3.214600    1.174600    0.007100
     25          1           0        2.010900    3.341100   -0.015700
     26          1           0       -1.718800    5.749700    0.150900
     27          1           0       -2.251600    5.587000   -1.508500
     28          1           0       -3.844900    5.153300    1.046100
     29          1           0       -4.177100    6.228900   -0.308300
     30          1           0       -4.772100    1.895900    1.574200
     31          1           0       -5.753100    1.448100    0.171300
     32          1           0       -7.179400    3.081600    1.078100
     33          1           0       -5.831400    3.975000    1.803800
     34          1           0       -6.373400    5.310100   -0.163500
     35          1           0       -6.624800    3.862500   -1.138700
     36          1           0       -1.303900   -1.432700    0.930100
     37          1           0        0.004500   -2.161300    0.005200
     38          1           0       -1.341200   -1.438300   -0.866400
 ---------------------------------------------------------------------
                    Distance matrix (angstroms):
                    1          2          3          4          5
     1  C    0.000000
     2  C    1.407400   0.000000
     3  C    2.439590   1.394133   0.000000
     4  C    2.812487   2.409042   1.390113   0.000000
     5  C    2.432280   2.781221   2.412181   1.395028   0.000000
     6  C    1.410170   2.424067   2.805337   2.430621   1.402730
     7  C    2.543558   3.810403   4.286707   3.761107   2.465448
     8  O    3.717075   4.148209   3.620468   2.332331   1.370477
     9  C    4.164399   4.947697   4.719065   3.572567   2.338238
    10  C    3.873606   4.965842   5.099502   4.197130   2.810658
    11  C    5.671745   6.383718   5.986080   4.703719   3.651495
    12  C    6.466523   7.381666   7.172033   5.962247   4.766336
    13  N    6.271760   7.367335   7.406302   6.353613   5.030914
    14  C    5.042997   6.255424   6.507899   5.640455   4.250409
    15  C    5.714215   7.019940   7.437693   6.688817   5.306006
    16  C    7.100848   8.350088   8.624642   7.728600   6.360229
    17  C    7.398686   8.583358   8.722941   7.713113   6.363172
    18  O    2.898068   4.298281   5.073843   4.791426   3.595348
    19  C    1.504724   2.497061   3.794121   4.315784   3.836772
    20  H    4.217876   5.230028   5.298324   4.377507   3.093421
    21  H    4.173663   4.940479   4.777476   3.752268   2.627197
    22  H    4.947227   6.193401   6.564417   5.821108   4.465859
    23  H    2.170690   1.089071   2.141176   3.386993   3.870106
    24  H    3.422483   2.155390   1.087191   2.151629   3.398373
    25  H    3.899604   3.395204   2.150626   1.087121   2.154986
    26  H    6.003007   6.546369   5.964453   4.609114   3.768187
    27  H    6.209657   6.846782   6.383890   5.104961   4.179847
    28  H    6.514145   7.432192   7.241789   6.058886   4.878288
    29  H    7.506158   8.371433   8.074499   6.809602   5.694618
    30  H    5.370799   6.652726   7.111754   6.443444   5.117498
    31  H    5.935023   7.307469   7.886666   7.271237   5.896599
    32  H    7.886846   9.186495   9.557548   8.725993   7.350172
    33  H    7.284198   8.453079   8.621775   7.668005   6.358351
    34  H    8.297236   9.421504   9.446612   8.347470   7.046953
    35  H    7.752646   8.985087   9.220826   8.283762   6.922858
    36  H    2.148923   3.204507   4.420210   4.820553   4.208193
    37  H    2.161311   2.576698   3.970341   4.793726   4.593150
    38  H    2.148994   3.220894   4.439667   4.830323   4.198557
                    6          7          8          9         10
     6  C    0.000000
     7  C    1.483924   0.000000
     8  O    2.452773   2.863222   0.000000
     9  C    2.775558   2.451065   1.432761   0.000000
    10  C    2.552079   1.515136   2.427845   1.519748   0.000000
    11  C    4.273445   3.836199   2.394381   1.534639   2.525649
    12  C    5.070823   4.218587   3.643803   2.553461   2.720731
    13  N    4.968550   3.832829   4.186583   2.821093   2.539837
    14  C    3.845547   2.523272   3.772667   2.498653   1.538930
    15  C    4.687946   3.238656   4.957858   3.857751   2.560265
    16  C    5.967862   4.585750   5.740041   4.580582   3.566240
    17  C    6.161666   4.869900   5.561186   4.239912   3.676007
    18  O    2.369789   1.228047   4.090356   3.554529   2.400607
    19  C    2.565191   3.043861   5.015627   5.181724   4.549312
    20  H    2.958988   2.111406   2.652521   2.160682   1.098912
    21  H    2.927027   2.685997   2.059244   1.100732   2.170046
    22  H    3.898628   2.611932   4.181610   2.890796   2.162488
    23  H    3.417254   4.706736   5.236183   6.015018   5.961863
    24  H    3.892519   5.373600   4.483320   5.671288   6.147822
    25  H    3.413961   4.619264   2.535285   3.900354   4.779396
    26  H    4.634152   4.423883   2.407488   2.184924   3.169845
    27  H    4.864170   4.517317   2.968840   2.148885   3.349239
    28  H    5.145749   4.279924   3.814227   2.971452   2.787837
    29  H    6.104130   5.294477   4.479105   3.463860   3.808111
    30  H    4.438209   3.076157   4.906889   4.065154   2.607483
    31  H    5.083186   3.600476   5.712091   4.581173   3.292894
    32  H    6.845024   5.412223   6.799854   5.632438   4.551691
    33  H    6.110358   4.845389   5.651543   4.665153   3.705871
    34  H    7.004358   5.790171   6.094733   4.838372   4.473696
    35  H    6.599174   5.263646   6.222191   4.828011   4.270282
    36  H    2.897383   3.038749   5.270307   5.371215   4.473112
    37  H    3.465861   4.121806   5.866194   6.164820   5.618040
    38  H    2.887430   3.045141   5.253188   5.163878   4.533048
                   11         12         13         14         15
    11  C    0.000000
    12  C    1.527867   0.000000
    13  N    2.453531   1.462447   0.000000
    14  C    2.946494   2.453723   1.486329   0.000000
    15  C    4.207974   3.348258   2.422030   1.538115   0.000000
    16  C    4.412138   3.121092   2.365164   2.430984   1.516999
    17  C    3.779437   2.433522   1.468387   2.364524   2.377845
    18  O    4.845492   4.966316   4.281147   2.813005   3.075722
    19  C    6.692111   7.253262   6.802223   5.415344   5.794023
    20  H    2.813975   2.828320   2.999002   2.190994   2.684045
    21  H    2.149650   3.158439   3.084624   2.772207   4.266686
    22  H    3.545818   3.269137   2.084533   1.098947   2.146324
    23  H    7.465424   8.440098   8.365181   7.193836   7.873306
    24  H    6.848198   8.102998   8.414066   7.568193   8.512989
    25  H    4.738701   6.109877   6.706121   6.204215   7.322502
    26  H    1.097109   2.152196   3.383739   3.843893   4.946894
    27  H    1.098095   2.157024   2.849281   3.553676   4.931398
    28  H    2.161277   1.097577   2.127383   2.732090   3.210400
    29  H    2.140984   1.096833   2.109337   3.404058   4.195922
    30  H    4.555176   3.835906   3.240262   2.219963   1.094703
    31  H    5.069165   4.265379   3.106176   2.166616   1.096905
    32  H    5.488254   4.162395   3.321524   3.346337   2.179341
    33  H    4.342923   3.023660   2.794926   2.955523   2.154826
    34  H    4.046351   2.578560   2.155037   3.330986   3.352879
    35  H    4.509421   3.325083   2.094953   2.786186   2.777755
    36  H    6.807626   7.184078   6.728856   5.285406   5.387043
    37  H    7.686281   8.315169   7.887432   6.508145   6.869359
    38  H    6.662763   7.156500   6.517300   5.138835   5.564352
                   16         17         18         19         20
    16  C    0.000000
    17  C    1.513400   0.000000
    18  O    4.574683   5.048621   0.000000
    19  C    7.283117   7.738330   2.744838   0.000000
    20  H    3.505652   3.912744   2.911914   4.912458   0.000000
    21  H    5.065204   4.530143   3.648090   5.124532   3.078494
    22  H    3.145213   2.886029   2.659444   5.170608   3.062293
    23  H    9.254062   9.543735   5.002887   2.691465   6.216255
    24  H    9.676880   9.752597   6.145833   4.652244   6.307614
    25  H    8.217520   8.094780   5.727935   5.402790   4.889714
    26  H    5.065318   4.571104   5.519629   7.150961   3.135747
    27  H    5.076097   4.161376   5.493013   7.248223   3.830354
    28  H    2.887748   2.715921   4.998505   7.273904   2.463207
    29  H    3.642216   2.680461   6.027399   8.322028   3.898569
    30  H    2.163501   3.298311   2.885541   5.416426   2.367264
    31  H    2.147863   2.892658   3.080851   5.761307   3.596583
    32  H    1.093964   2.180545   5.199653   7.903052   4.490874
    33  H    1.096299   2.159658   4.995714   7.587328   3.332719
    34  H    2.182758   1.095292   6.069303   8.729598   4.581515
    35  H    2.149958   1.096989   5.268051   7.956212   4.692538
    36  H    6.863344   7.518998   2.540872   1.094340   4.645640
    37  H    8.362949   8.831318   3.824304   1.095802   5.948550
    38  H    7.068525   7.413971   2.527738   1.094443   5.096676
                   21         22         23         24         25
    21  H    0.000000
    22  H    2.738887   0.000000
    23  H    5.959340   7.067454   0.000000
    24  H    5.710275   7.625576   2.461177   0.000000
    25  H    4.124273   6.460258   4.282111   2.478535   0.000000
    26  H    2.955393   4.549100   7.634595   6.729833   4.442946
    27  H    2.241157   3.901563   7.912916   7.186491   5.043949
    28  H    3.815815   3.748131   8.477513   8.169830   6.221084
    29  H    3.940468   4.111580   9.440342   8.960059   6.834936
    30  H    4.642977   2.915489   7.468042   8.170891   7.115158
    31  H    4.783999   2.239886   8.072643   8.973372   7.993630
    32  H    6.054472   3.865931  10.039188  10.621625   9.258799
    33  H    5.349456   3.880559   9.382861   9.638490   8.075523
    34  H    5.190097   3.911746  10.415584  10.443237   8.613669
    35  H    4.893441   2.901514   9.900446  10.264086   8.724007
    36  H    5.494804   5.179194   3.423778   5.297809   5.888260
    37  H    6.068073   6.232557   2.302094   4.629576   5.856832
    38  H    4.919632   4.687147   3.447450   5.324055   5.899401
                   26         27         28         29         30
    26  H    0.000000
    27  H    1.750416   0.000000
    28  H    2.382725   3.041822   0.000000
    29  H    2.546318   2.357979   1.761156   0.000000
    30  H    5.118613   5.429565   3.427717   4.761588   0.000000
    31  H    5.897436   5.675625   4.258522   5.056663   1.769467
    32  H    6.147895   6.103339   3.925794   4.565239   2.728936
    33  H    4.774423   5.136618   2.430778   3.503961   2.344673
    34  H    4.685872   4.344529   2.807317   2.385140   4.152171
    35  H    5.412340   4.715457   3.763955   3.504376   3.828817
    36  H    7.236447   7.491401   7.060137   8.275810   4.850036
    37  H    8.097834   8.210812   8.330950   9.379740   6.460537
    38  H    7.269445   7.113084   7.305844   8.193886   5.370707
                   31         32         33         34         35
    31  H    0.000000
    32  H    2.350519   0.000000
    33  H    3.009387   1.772543   0.000000
    34  H    3.925800   2.675335   2.438550   0.000000
    35  H    2.881890   2.414868   3.049663   1.763452   0.000000
    36  H    5.354453   7.410959   7.106675   8.506535   7.786594
    37  H    6.797449   8.958099   8.657186   9.824861   9.030077
    38  H    5.373359   7.635126   7.523010   8.447367   7.489263
                   36         37         38
    36  H    0.000000
    37  H    1.760173   0.000000
    38  H    1.796896   1.758785   0.000000
 Stoichiometry    C16H19NO2
 Framework group  C1[X(C16H19NO2)]
 Deg. of freedom   108
 Full point group                 C1      NOp   1
 Largest Abelian subgroup         C1      NOp   1
 Largest concise Abelian subgroup C1      NOp   1
                         Standard orientation:                         
 ---------------------------------------------------------------------
 Center     Atomic      Atomic             Coordinates (Angstroms)
 Number     Number       Type             X           Y           Z
 ---------------------------------------------------------------------
      1          6           0       -3.064368    1.013189   -0.073971
      2          6           0       -4.283495    0.316030    0.018082
      3          6           0       -4.310963   -1.067692    0.185913
      4          6           0       -3.118917   -1.779673    0.253185
      5          6           0       -1.899523   -1.110814    0.144514
      6          6           0       -1.859700    0.283982    0.000951
      7          6           0       -0.522688    0.927105   -0.027668
      8          8           0       -0.790728   -1.913213    0.214798
      9          6           0        0.364692   -1.327567   -0.397435
     10          6           0        0.669688    0.026262    0.222048
     11          6           0        1.531666   -2.307267   -0.214463
     12          6           0        2.840264   -1.612969    0.159569
     13          7           0        3.018790   -0.403368   -0.642770
     14          6           0        1.950958    0.602965   -0.405699
     15          6           0        2.582435    1.712498    0.452189
     16          6           0        3.982253    1.225581    0.775773
     17          6           0        4.291543    0.270890   -0.357049
     18          8           0       -0.395954    2.138214   -0.186584
     19          6           0       -3.115280    2.508310   -0.235875
     20          1           0        0.769181   -0.069790    1.312223
     21          1           0        0.165480   -1.228130   -1.475413
     22          1           0        1.705667    1.034904   -1.385977
     23          1           0       -5.228857    0.854254   -0.033700
     24          1           0       -5.262049   -1.588853    0.262126
     25          1           0       -3.137101   -2.859233    0.379874
     26          1           0        1.298061   -3.063856    0.544913
     27          1           0        1.668057   -2.859557   -1.153711
     28          1           0        2.847302   -1.389911    1.234219
     29          1           0        3.664086   -2.313633   -0.023268
     30          1           0        2.026285    1.935322    1.368389
     31          1           0        2.643667    2.637769   -0.133750
     32          1           0        4.700882    2.048024    0.838366
     33          1           0        3.984043    0.698966    1.737305
     34          1           0        5.108428   -0.417808   -0.116097
     35          1           0        4.596938    0.834828   -1.247045
     36          1           0       -2.644950    3.003542    0.619178
     37          1           0       -4.148048    2.871004   -0.287100
     38          1           0       -2.626527    2.810745   -1.167250
 ---------------------------------------------------------------------
 Rotational constants (GHZ):           0.8417779           0.2587238           0.2049755
 Standard basis: STO-3G (5D, 7F)
 There are   114 symmetry adapted cartesian basis functions of A   symmetry.
 There are   114 symmetry adapted basis functions of A   symmetry.
   114 basis functions,   342 primitive gaussians,   114 cartesian basis functions
    69 alpha electrons       69 beta electrons
       nuclear repulsion energy      1484.0096464481 Hartrees.
 NAtoms=   38 NActive=   38 NUniq=   38 SFac= 1.00D+00 NAtFMM=   60 NAOKFM=F Big=F
 Integral buffers will be    131072 words long.
 Raffenetti 1 integral format.
 Two-electron integral symmetry is turned on.
 One-electron integrals computed using PRISM.
 NBasis=   114 RedAO= T EigKep=  1.74D-01  NBF=   114
 NBsUse=   114 1.00D-06 EigRej= -1.00D+00 NBFU=   114
 ExpMin= 1.69D-01 ExpMax= 1.31D+02 ExpMxC= 1.31D+02 IAcc=3 IRadAn=         5 AccDes= 0.00D+00
 Harris functional with IExCor=  205 and IRadAn=       5 diagonalized for initial guess.
 HarFok:  IExCor=  205 AccDes= 0.00D+00 IRadAn=         5 IDoV= 1 UseB2=F ITyADJ=14
 ICtDFT=  3500011 ScaDFX=  1.000000  1.000000  1.000000  1.000000
 FoFCou: FMM=F IPFlag=           0 FMFlag=      100000 FMFlg1=           0
         NFxFlg=           0 DoJE=T BraDBF=F KetDBF=T FulRan=T
         wScrn=  0.000000 ICntrl=       500 IOpCl=  0 I1Cent=   200000004 NGrid=           0
         NMat0=    1 NMatS0=      1 NMatT0=    0 NMatD0=    1 NMtDS0=    0 NMtDT0=    0
 Petite list used in FoFCou.
 Requested convergence on RMS density matrix=1.00D-08 within 128 cycles.
 Requested convergence on MAX density matrix=1.00D-06.
 Requested convergence on             energy=1.00D-06.
 No special actions if energy rises.
 Integral accuracy reduced to 1.0D-05 until final iterations.
 Initial convergence to 1.0D-05 achieved.  Increase integral accuracy.
 SCF Done:  E(RHF) =  -811.054026408     A.U. after   17 cycles
            NFock= 17  Conv=0.63D-08     -V/T= 2.0093
 Range of M.O.s used for correlation:     1   114
 NBasis=   114 NAE=    69 NBE=    69 NFC=     0 NFV=     0
 NROrb=    114 NOA=    69 NOB=    69 NVA=    45 NVB=    45
          Differentiating once with respect to magnetic field using GIAOs.
          Electric field/nuclear overlap derivatives assumed to be zero.
 FoFCou: FMM=F IPFlag=           0 FMFlag=      100000 FMFlg1=           0
         NFxFlg=           0 DoJE=F BraDBF=F KetDBF=T FulRan=T
         wScrn=  0.000000 ICntrl=      6100 IOpCl=  0 I1Cent=           7 NGrid=          38
         NMat0=    1 NMatS0=      1 NMatT0=    0 NMatD0=    1 NMtDS0=    0 NMtDT0=    0
 Symmetry not used in FoFCou.
 FoFJK:  IHMeth= 1 ICntrl=    6127 DoSepK=F KAlg= 0 I1Cent=           0 FoldK=F
 IRaf=         1 NMat=       1 IRICut=       1 DoRegI=T DoRafI=F ISym2E= 0 IDoP0=0 IntGTp=1.
          There are     3 degrees of freedom in the 1st order CPHF.  IDoFFX=0 NUNeed=     3.
      3 vectors produced by pass  0 Test12= 1.04D-13 3.33D-08 XBig12= 2.88D+01 1.62D+00.
 AX will form     3 AO Fock derivatives at one time.
      3 vectors produced by pass  1 Test12= 1.04D-13 3.33D-08 XBig12= 1.76D-01 2.42D-01.
      3 vectors produced by pass  2 Test12= 1.04D-13 3.33D-08 XBig12= 3.28D-03 2.09D-02.
      3 vectors produced by pass  3 Test12= 1.04D-13 3.33D-08 XBig12= 1.00D-04 2.10D-03.
      3 vectors produced by pass  4 Test12= 1.04D-13 3.33D-08 XBig12= 1.33D-06 1.64D-04.
      3 vectors produced by pass  5 Test12= 1.04D-13 3.33D-08 XBig12= 1.48D-08 1.92D-05.
      3 vectors produced by pass  6 Test12= 1.04D-13 3.33D-08 XBig12= 2.81D-10 3.75D-06.
      3 vectors produced by pass  7 Test12= 1.04D-13 3.33D-08 XBig12= 3.93D-12 2.64D-07.
      2 vectors produced by pass  8 Test12= 1.04D-13 3.33D-08 XBig12= 7.37D-14 5.40D-08.
 InvSVY:  IOpt=1 It=  1 EMax= 8.88D-16
 Solved reduced A of dimension    26 with     3 vectors.
 Calculating GIAO nuclear magnetic shielding tensors.
 SCF GIAO Magnetic shielding tensor (ppm):
      1  C    Isotropic =   113.8111   Anisotropy =   169.3486
   XX=    80.7971   YX=     8.6238   ZX=     0.2344
   XY=    13.1753   YY=    36.0871   ZY=    20.8902
   XZ=    -0.7328   YZ=    19.6498   ZZ=   224.5490
   Eigenvalues:    31.5352    83.1879   226.7101
      2  C    Isotropic =   123.8191   Anisotropy =   142.7388
   XX=    56.5078   YX=    38.8063   ZX=    -2.7052
   XY=    33.7913   YY=    97.3293   ZY=    13.9789
   XZ=    -1.3636   YZ=    11.5295   ZZ=   217.6204
   Eigenvalues:    34.9047   117.5744   218.9783
      3  C    Isotropic =   117.2532   Anisotropy =   168.4407
   XX=    40.4472   YX=   -34.2464   ZX=     6.2959
   XY=   -36.0617   YY=    84.0484   ZY=    18.1878
   XZ=     7.8104   YZ=    17.9419   ZZ=   227.2641
   Eigenvalues:    19.7961   102.4165   229.5470
      4  C    Isotropic =   131.3073   Anisotropy =   145.5706
   XX=   116.5096   YX=    -1.5355   ZX=     2.9949
   XY=    -4.5892   YY=    51.0712   ZY=    21.4511
   XZ=     4.1629   YZ=    15.4302   ZZ=   226.3411
   Eigenvalues:    48.9790   116.5885   228.3544
      5  C    Isotropic =   104.3361   Anisotropy =   132.8218
   XX=    56.4497   YX=    18.3873   ZX=     2.7138
   XY=     7.7317   YY=    64.7108   ZY=    12.7607
   XZ=    -1.0053   YZ=     9.9512   ZZ=   191.8479
   Eigenvalues:    46.6275    73.4970   192.8840
      6  C    Isotropic =   130.8739   Anisotropy =   148.4697
   XX=    73.6953   YX=   -18.2094   ZX=     0.4166
   XY=   -17.0973   YY=    91.4250   ZY=    14.1524
   XZ=    -3.6369   YZ=    21.1869   ZZ=   227.5012
   Eigenvalues:    62.4123   100.3556   229.8537
      7  C    Isotropic =    89.8794   Anisotropy =   135.7325
   XX=   -41.7960   YX=    14.4067   ZX=   -18.3088
   XY=    15.5007   YY=   133.9738   ZY=    10.6130
   XZ=   -16.8555   YZ=     8.3429   ZZ=   177.4605
   Eigenvalues:   -44.5727   133.8432   180.3678
      8  O    Isotropic =   335.7339   Anisotropy =    86.9501
   XX=   292.4277   YX=   -38.4864   ZX=    24.3432
   XY=   -50.8198   YY=   325.5446   ZY=    14.3614
   XZ=     2.9051   YZ=   -24.9633   ZZ=   389.2295
   Eigenvalues:   260.8373   352.6638   393.7007
      9  C    Isotropic =   186.4467   Anisotropy =    49.0466
   XX=   207.9129   YX=    10.3282   ZX=   -15.7048
   XY=    13.9648   YY=   179.1933   ZY=    -3.2366
   XZ=   -17.9727   YZ=    -8.5484   ZZ=   172.2340
   Eigenvalues:   165.4446   174.7511   219.1445
     10  C    Isotropic =   208.1482   Anisotropy =    13.3757
   XX=   215.2430   YX=     5.1527   ZX=    -2.0031
   XY=     0.3300   YY=   201.2125   ZY=     2.0358
   XZ=    -5.4131   YZ=     0.6447   ZZ=   207.9892
   Eigenvalues:   200.1320   207.2474   217.0653
     11  C    Isotropic =   217.1224   Anisotropy =    18.7555
   XX=   228.8547   YX=    -1.8856   ZX=     1.7427
   XY=    -2.9501   YY=   221.2265   ZY=    -1.5480
   XZ=    -0.1204   YZ=    -2.8712   ZZ=   201.2861
   Eigenvalues:   201.0335   220.7077   229.6261
     12  C    Isotropic =   203.2232   Anisotropy =    37.0076
   XX=   199.3907   YX=     7.5460   ZX=     0.6374
   XY=     7.3472   YY=   219.3846   ZY=   -14.6298
   XZ=    -3.3292   YZ=   -15.8111   ZZ=   190.8942
   Eigenvalues:   184.0795   197.6951   227.8950
     13  N    Isotropic =   289.8290   Anisotropy =    67.2804
   XX=   333.0352   YX=    -8.5612   ZX=     5.1623
   XY=    -7.8207   YY=   293.7318   ZY=    10.6563
   XZ=     0.8631   YZ=    10.4576   ZZ=   242.7200
   Eigenvalues:   240.3955   294.4089   334.6826
     14  C    Isotropic =   193.2530   Anisotropy =    42.7155
   XX=   209.7945   YX=   -12.9966   ZX=     0.0350
   XY=   -16.8093   YY=   200.9780   ZY=    12.3908
   XZ=     2.8143   YZ=    12.3995   ZZ=   168.9865
   Eigenvalues:   163.8275   194.2014   221.7300
     15  C    Isotropic =   210.1234   Anisotropy =    31.7815
   XX=   222.1820   YX=     4.9161   ZX=     6.2972
   XY=     2.7702   YY=   212.3648   ZY=    19.7654
   XZ=    10.4661   YZ=    17.0681   ZZ=   195.8235
   Eigenvalues:   183.2517   215.8075   231.3111
     16  C    Isotropic =   216.4231   Anisotropy =    22.5682
   XX=   228.1306   YX=    -5.9654   ZX=     1.2257
   XY=    -9.8024   YY=   211.7840   ZY=    11.3568
   XZ=     8.0537   YZ=    18.7243   ZZ=   209.3548
   Eigenvalues:   193.2671   224.5337   231.4686
     17  C    Isotropic =   197.7984   Anisotropy =    48.3743
   XX=   221.6963   YX=    10.7874   ZX=     4.8802
   XY=    19.1698   YY=   194.2379   ZY=    12.5743
   XZ=     0.6817   YZ=    20.4469   ZZ=   177.4611
   Eigenvalues:   166.7283   196.6190   230.0480
     18  O    Isotropic =  -345.0208   Anisotropy =  1258.0911
   XX=  -397.1306   YX=  -130.0976   ZX=   -47.1430
   XY=   -87.3964   YY= -1090.2586   ZY=   222.7235
   XZ=   -29.2394   YZ=   267.6443   ZZ=   452.3269
   Eigenvalues: -1142.1820  -386.5869   493.7066
     19  C    Isotropic =   218.0416   Anisotropy =    23.3213
   XX=   215.3950   YX=    -0.0320   ZX=     0.1895
   XY=    -0.3819   YY=   233.2529   ZY=    -3.2129
   XZ=     0.2288   YZ=    -2.9095   ZZ=   205.4768
   Eigenvalues:   205.1401   215.3955   233.5891
     20  H    Isotropic =    31.4884   Anisotropy =     6.8512
   XX=    31.0771   YX=     0.9942   ZX=    -1.4857
   XY=     2.2527   YY=    27.4202   ZY=     1.7510
   XZ=     1.5149   YZ=    -0.0719   ZZ=    35.9678
   Eigenvalues:    26.7375    31.6718    36.0558
     21  H    Isotropic =    31.0850   Anisotropy =     7.6647
   XX=    30.7517   YX=    -0.0099   ZX=     2.4670
   XY=     0.0005   YY=    26.8307   ZY=    -0.1050
   XZ=    -0.0077   YZ=     3.1331   ZZ=    35.6725
   Eigenvalues:    26.5680    30.4921    36.1948
     22  H    Isotropic =    31.2496   Anisotropy =    10.8777
   XX=    29.7880   YX=    -1.0787   ZX=     4.6191
   XY=    -0.3556   YY=    29.9771   ZY=    -5.8343
   XZ=     0.4558   YZ=    -5.0596   ZZ=    33.9837
   Eigenvalues:    25.9514    29.2959    38.5014
     23  H    Isotropic =    25.8857   Anisotropy =     6.0461
   XX=    28.2717   YX=     1.5808   ZX=    -0.2194
   XY=     1.5805   YY=    28.2654   ZY=    -0.8526
   XZ=    -0.1586   YZ=    -0.9379   ZZ=    21.1201
   Eigenvalues:    21.0096    26.7310    29.9165
     24  H    Isotropic =    25.2808   Anisotropy =     3.6865
   XX=    27.2099   YX=    -0.3259   ZX=    -0.0417
   XY=    -0.7071   YY=    27.1714   ZY=    -0.6523
   XZ=    -0.0464   YZ=    -0.6844   ZZ=    21.4611
   Eigenvalues:    21.3821    26.7219    27.7385
     25  H    Isotropic =    25.6867   Anisotropy =     7.1522
   XX=    29.8163   YX=     1.6181   ZX=    -0.4576
   XY=     1.1690   YY=    27.0101   ZY=    -0.8356
   XZ=    -0.4284   YZ=    -1.2280   ZZ=    20.2336
   Eigenvalues:    20.0742    26.5310    30.4548
     26  H    Isotropic =    31.4559   Anisotropy =    13.6372
   XX=    30.1003   YX=     1.5227   ZX=    -0.7513
   XY=     1.7700   YY=    36.5248   ZY=    -6.4378
   XZ=    -0.9210   YZ=    -7.1455   ZZ=    27.7424
   Eigenvalues:    24.0456    29.7747    40.5473
     27  H    Isotropic =    31.2030   Anisotropy =    14.3957
   XX=    28.6210   YX=    -1.5900   ZX=    -0.3966
   XY=    -1.0845   YY=    33.1957   ZY=     7.8643
   XZ=    -1.1952   YZ=     8.3057   ZZ=    31.7924
   Eigenvalues:    24.3542    28.4547    40.8002
     28  H    Isotropic =    32.1860   Anisotropy =     7.9224
   XX=    29.5942   YX=     1.1168   ZX=     2.4083
   XY=     1.4112   YY=    30.8503   ZY=    -2.1926
   XZ=     2.8932   YZ=    -2.1003   ZZ=    36.1134
   Eigenvalues:    27.4780    31.6123    37.4675
     29  H    Isotropic =    31.6672   Anisotropy =    14.0251
   XX=    35.5563   YX=    -5.2824   ZX=    -0.2865
   XY=    -5.5998   YY=    35.5836   ZY=     0.5660
   XZ=    -0.2104   YZ=    -0.1366   ZZ=    23.8618
   Eigenvalues:    23.8554    30.1290    41.0173
     30  H    Isotropic =    32.0775   Anisotropy =    10.4508
   XX=    32.6262   YX=    -1.8775   ZX=    -4.0768
   XY=    -0.7989   YY=    30.7710   ZY=     5.4664
   XZ=    -2.1878   YZ=     5.4621   ZZ=    32.8353
   Eigenvalues:    26.0750    31.1128    39.0447
     31  H    Isotropic =    31.3140   Anisotropy =    15.0962
   XX=    27.9595   YX=     0.1518   ZX=     1.2436
   XY=     0.0867   YY=    40.1141   ZY=    -4.4709
   XZ=     1.6073   YZ=    -4.3629   ZZ=    25.8685
   Eigenvalues:    24.0993    28.4647    41.3782
     32  H    Isotropic =    32.1862   Anisotropy =    16.0542
   XX=    35.4437   YX=     7.1632   ZX=     2.3628
   XY=     6.9483   YY=    34.4664   ZY=     2.6046
   XZ=     2.7216   YZ=     2.9091   ZZ=    26.6485
   Eigenvalues:    25.7522    27.9174    42.8890
     33  H    Isotropic =    32.1505   Anisotropy =    11.6669
   XX=    29.1492   YX=    -0.1293   ZX=     3.2771
   XY=    -0.0463   YY=    29.1081   ZY=    -2.4756
   XZ=     4.0222   YZ=    -2.1102   ZZ=    38.1940
   Eigenvalues:    27.4821    29.0409    39.9284
     34  H    Isotropic =    31.7943   Anisotropy =    13.9600
   XX=    39.2100   YX=    -5.0355   ZX=     0.0224
   XY=    -3.7858   YY=    30.8100   ZY=     0.4939
   XZ=     0.0767   YZ=     0.2091   ZZ=    25.3631
   Eigenvalues:    25.3298    28.9522    41.1010
     35  H    Isotropic =    31.4151   Anisotropy =    14.4950
   XX=    32.1198   YX=     3.4229   ZX=    -6.5817
   XY=     3.7009   YY=    28.6665   ZY=    -4.0244
   XZ=    -6.0267   YZ=    -2.7950   ZZ=    33.4589
   Eigenvalues:    26.2155    26.9513    41.0784
     36  H    Isotropic =    31.0762   Anisotropy =    10.5556
   XX=    30.4972   YX=     1.7404   ZX=     3.4260
   XY=     1.2871   YY=    33.4608   ZY=     3.4925
   XZ=     2.1863   YZ=     7.0505   ZZ=    29.2705
   Eigenvalues:    25.2219    29.8934    38.1132
     37  H    Isotropic =    30.9728   Anisotropy =    12.2478
   XX=    37.1272   YX=    -3.3739   ZX=     0.5115
   XY=    -4.1202   YY=    31.9144   ZY=    -0.9845
   XZ=     0.4978   YZ=    -0.9545   ZZ=    23.8768
   Eigenvalues:    23.7612    30.0192    39.1380
     38  H    Isotropic =    30.8398   Anisotropy =    10.6692
   XX=    30.3892   YX=     1.0866   ZX=    -3.5639
   XY=     0.9495   YY=    30.9326   ZY=    -4.1007
   XZ=    -2.8243   YZ=    -7.2395   ZZ=    31.1974
   Eigenvalues:    24.9138    29.6529    37.9526
 End of Minotr F.D. properties file   721 does not exist.
 End of Minotr F.D. properties file   722 does not exist.
 End of Minotr F.D. properties file   788 does not exist.

 **********************************************************************

            Population analysis using the SCF Density.

 **********************************************************************

 Orbital symmetries:
       Occupied  (A) (A) (A) (A) (A) (A) (A) (A) (A) (A) (A) (A)
                 (A) (A) (A) (A) (A) (A) (A) (A) (A) (A) (A) (A)
                 (A) (A) (A) (A) (A) (A) (A) (A) (A) (A) (A) (A)
                 (A) (A) (A) (A) (A) (A) (A) (A) (A) (A) (A) (A)
                 (A) (A) (A) (A) (A) (A) (A) (A) (A) (A) (A) (A)
                 (A) (A) (A) (A) (A) (A) (A) (A) (A)
       Virtual   (A) (A) (A) (A) (A) (A) (A) (A) (A) (A) (A) (A)
                 (A) (A) (A) (A) (A) (A) (A) (A) (A) (A) (A) (A)
                 (A) (A) (A) (A) (A) (A) (A) (A) (A) (A) (A) (A)
                 (A) (A) (A) (A) (A) (A) (A) (A) (A)
 The electronic state is 1-A.
 Alpha  occ. eigenvalues --  -20.29822 -20.26379 -15.31141 -11.11626 -11.11118
 Alpha  occ. eigenvalues --  -11.09687 -11.07748 -11.07621 -11.06888 -11.06567
 Alpha  occ. eigenvalues --  -11.05230 -11.05013 -11.04322 -11.04075 -11.03958
 Alpha  occ. eigenvalues --  -11.03808 -11.02874 -11.02194 -11.01879  -1.34427
 Alpha  occ. eigenvalues --   -1.31661  -1.19717  -1.09756  -1.05093  -1.02602
 Alpha  occ. eigenvalues --   -0.99138  -0.97780  -0.95035  -0.91899  -0.88137
 Alpha  occ. eigenvalues --   -0.84751  -0.79970  -0.77781  -0.74751  -0.74226
 Alpha  occ. eigenvalues --   -0.71643  -0.69994  -0.64645  -0.64404  -0.63107
 Alpha  occ. eigenvalues --   -0.61043  -0.60068  -0.57381  -0.56912  -0.56528
 Alpha  occ. eigenvalues --   -0.55239  -0.54385  -0.53325  -0.52874  -0.51341
 Alpha  occ. eigenvalues --   -0.50914  -0.50081  -0.49485  -0.47557  -0.46907
 Alpha  occ. eigenvalues --   -0.45803  -0.45652  -0.44302  -0.43654  -0.43440
 Alpha  occ. eigenvalues --   -0.42478  -0.41560  -0.40851  -0.39203  -0.36273
 Alpha  occ. eigenvalues --   -0.31496  -0.28141  -0.27351  -0.24505
 Alpha virt. eigenvalues --    0.21247   0.26892   0.34666   0.48908   0.51162
 Alpha virt. eigenvalues --    0.51819   0.55481   0.56336   0.58101   0.59413
 Alpha virt. eigenvalues --    0.60602   0.60797   0.62023   0.64314   0.64764
 Alpha virt. eigenvalues --    0.65489   0.65952   0.68198   0.68668   0.69677
 Alpha virt. eigenvalues --    0.70298   0.70905   0.72181   0.73661   0.73813
 Alpha virt. eigenvalues --    0.74031   0.74694   0.75461   0.76129   0.77057
 Alpha virt. eigenvalues --    0.78070   0.78697   0.79425   0.80413   0.82478
 Alpha virt. eigenvalues --    0.82988   0.84847   0.85905   0.86807   0.87181
 Alpha virt. eigenvalues --    0.90079   0.93606   1.00663   1.11959   1.13494
          Condensed to atoms (all electrons):
               1          2          3          4          5          6
     1  C    4.757804   0.505519  -0.028693  -0.009987  -0.027849   0.496925
     2  C    0.505519   4.807592   0.504064  -0.031529  -0.011333  -0.031168
     3  C   -0.028693   0.504064   4.758857   0.509061  -0.029253  -0.009513
     4  C   -0.009987  -0.031529   0.509061   4.806876   0.498991  -0.031888
     5  C   -0.027849  -0.011333  -0.029253   0.498991   4.755055   0.489272
     6  C    0.496925  -0.031168  -0.009513  -0.031888   0.489272   4.873755
     7  C   -0.023251   0.000761   0.000018   0.000802  -0.029833   0.389540
     8  O    0.000243   0.000008   0.000350  -0.027139   0.293417  -0.016746
     9  C    0.000030   0.000000  -0.000020   0.001696  -0.040344  -0.007589
    10  C    0.000609  -0.000007  -0.000000  -0.000033  -0.004721  -0.034744
    11  C    0.000000   0.000000   0.000000  -0.000014   0.001613  -0.000003
    12  C   -0.000000  -0.000000  -0.000000   0.000000  -0.000015  -0.000000
    13  N    0.000000  -0.000000  -0.000000   0.000000  -0.000000  -0.000002
    14  C   -0.000004   0.000000  -0.000000   0.000000   0.000017   0.000585
    15  C    0.000000  -0.000000   0.000000  -0.000000  -0.000000  -0.000002
    16  C   -0.000000   0.000000  -0.000000   0.000000   0.000000   0.000000
    17  C   -0.000000   0.000000   0.000000   0.000000  -0.000000   0.000000
    18  O   -0.001038  -0.000004  -0.000000  -0.000002   0.000327  -0.027398
    19  C    0.381503  -0.030238   0.000879   0.000011   0.000712  -0.024003
    20  H   -0.000016   0.000000   0.000000  -0.000006   0.000070   0.000023
    21  H   -0.000013  -0.000001   0.000000   0.000087  -0.003039   0.000712
    22  H   -0.000001   0.000000   0.000000   0.000000   0.000001   0.000061
    23  H   -0.025040   0.394212  -0.026859   0.001423   0.000049   0.001258
    24  H    0.001320  -0.024809   0.393611  -0.025134   0.001372   0.000009
    25  H    0.000036   0.001383  -0.024648   0.393455  -0.025314   0.001231
    26  H    0.000000   0.000000   0.000000  -0.000005   0.000102   0.000001
    27  H   -0.000000  -0.000000  -0.000000   0.000001  -0.000037  -0.000000
    28  H   -0.000000   0.000000  -0.000000   0.000000  -0.000001   0.000000
    29  H    0.000000   0.000000   0.000000  -0.000000   0.000000   0.000000
    30  H    0.000000  -0.000000   0.000000  -0.000000  -0.000000  -0.000005
    31  H   -0.000000   0.000000  -0.000000   0.000000   0.000000   0.000001
    32  H    0.000000  -0.000000   0.000000  -0.000000  -0.000000  -0.000000
    33  H    0.000000  -0.000000   0.000000  -0.000000   0.000000  -0.000000
    34  H    0.000000  -0.000000  -0.000000  -0.000000  -0.000000  -0.000000
    35  H    0.000000  -0.000000   0.000000  -0.000000   0.000000  -0.000000
    36  H   -0.021141   0.000685  -0.000024   0.000003  -0.000001  -0.001772
    37  H   -0.020509  -0.005662   0.000061  -0.000000  -0.000016   0.001130
    38  H   -0.021119   0.000754  -0.000023   0.000002   0.000001  -0.001903
               7          8          9         10         11         12
     1  C   -0.023251   0.000243   0.000030   0.000609   0.000000  -0.000000
     2  C    0.000761   0.000008   0.000000  -0.000007   0.000000  -0.000000
     3  C    0.000018   0.000350  -0.000020  -0.000000   0.000000  -0.000000
     4  C    0.000802  -0.027139   0.001696  -0.000033  -0.000014   0.000000
     5  C   -0.029833   0.293417  -0.040344  -0.004721   0.001613  -0.000015
     6  C    0.389540  -0.016746  -0.007589  -0.034744  -0.000003  -0.000000
     7  C    4.769905  -0.001709  -0.024985   0.357518   0.000764   0.000039
     8  O   -0.001709   7.797003   0.261935  -0.017281  -0.019437   0.000252
     9  C   -0.024985   0.261935   4.740357   0.356640   0.358401  -0.020507
    10  C    0.357518  -0.017281   0.356640   4.825445  -0.024058  -0.009444
    11  C    0.000764  -0.019437   0.358401  -0.024058   4.758643   0.362224
    12  C    0.000039   0.000252  -0.020507  -0.009444   0.362224   4.704932
    13  N    0.000365   0.000001  -0.003732  -0.015624  -0.022158   0.326808
    14  C   -0.020792   0.000243  -0.021191   0.359990  -0.003593  -0.032232
    15  C   -0.000420  -0.000001   0.000700  -0.021987  -0.000011   0.000670
    16  C    0.000001   0.000000  -0.000012   0.000694  -0.000015  -0.000525
    17  C   -0.000007   0.000000   0.000029   0.000991   0.001104  -0.034430
    18  O    0.432328  -0.000000   0.000298  -0.025695  -0.000001  -0.000000
    19  C   -0.002550  -0.000001  -0.000000   0.000007  -0.000000   0.000000
    20  H   -0.024193  -0.000700  -0.022305   0.378964  -0.001920  -0.000311
    21  H   -0.002721  -0.018476   0.378384  -0.026168  -0.024744   0.000813
    22  H   -0.004147  -0.000002  -0.000868  -0.024743   0.000073   0.001742
    23  H   -0.000014   0.000000  -0.000000   0.000000   0.000000  -0.000000
    24  H    0.000001  -0.000005   0.000000  -0.000000  -0.000000   0.000000
    25  H   -0.000018  -0.001100   0.000033   0.000000  -0.000003   0.000000
    26  H   -0.000019  -0.001995  -0.020164   0.000488   0.380075  -0.020683
    27  H   -0.000017   0.000494  -0.023075   0.001232   0.383705  -0.022068
    28  H    0.000002   0.000009  -0.000532  -0.000296  -0.025311   0.377576
    29  H    0.000000  -0.000004   0.001170   0.000077  -0.021077   0.383819
    30  H   -0.000053  -0.000000   0.000051  -0.005219   0.000002  -0.000034
    31  H   -0.000010   0.000000  -0.000014   0.001131  -0.000001  -0.000019
    32  H   -0.000000  -0.000000   0.000000  -0.000011   0.000000  -0.000003
    33  H    0.000001  -0.000000   0.000000   0.000003  -0.000001  -0.000387
    34  H    0.000000   0.000000  -0.000001  -0.000024   0.000043  -0.004910
    35  H    0.000000  -0.000000  -0.000001  -0.000014  -0.000022   0.001821
    36  H   -0.000076  -0.000000  -0.000000  -0.000002   0.000000   0.000000
    37  H    0.000014   0.000000   0.000000   0.000000   0.000000  -0.000000
    38  H   -0.000051  -0.000000  -0.000000  -0.000003  -0.000000  -0.000000
              13         14         15         16         17         18
     1  C    0.000000  -0.000004   0.000000  -0.000000  -0.000000  -0.001038
     2  C   -0.000000   0.000000  -0.000000   0.000000   0.000000  -0.000004
     3  C   -0.000000  -0.000000   0.000000  -0.000000   0.000000  -0.000000
     4  C    0.000000   0.000000  -0.000000   0.000000   0.000000  -0.000002
     5  C   -0.000000   0.000017  -0.000000   0.000000  -0.000000   0.000327
     6  C   -0.000002   0.000585  -0.000002   0.000000   0.000000  -0.027398
     7  C    0.000365  -0.020792  -0.000420   0.000001  -0.000007   0.432328
     8  O    0.000001   0.000243  -0.000001   0.000000   0.000000  -0.000000
     9  C   -0.003732  -0.021191   0.000700  -0.000012   0.000029   0.000298
    10  C   -0.015624   0.359990  -0.021987   0.000694   0.000991  -0.025695
    11  C   -0.022158  -0.003593  -0.000011  -0.000015   0.001104  -0.000001
    12  C    0.326808  -0.032232   0.000670  -0.000525  -0.034430  -0.000000
    13  N    6.513667   0.325235  -0.028999  -0.033907   0.330698   0.000000
    14  C    0.325235   4.742274   0.358918  -0.033937  -0.044917  -0.001586
    15  C   -0.028999   0.358918   4.775696   0.364568  -0.037931  -0.000200
    16  C   -0.033907  -0.033937   0.364568   4.769595   0.363967   0.000002
    17  C    0.330698  -0.044917  -0.037931   0.363967   4.718975  -0.000000
    18  O    0.000000  -0.001586  -0.000200   0.000002  -0.000000   7.856080
    19  C    0.000000  -0.000000   0.000000  -0.000000  -0.000000  -0.001649
    20  H   -0.000140  -0.020387  -0.004061   0.000117   0.000017  -0.000260
    21  H    0.000034  -0.001634  -0.000003  -0.000000   0.000000   0.000007
    22  H   -0.027792   0.383293  -0.026001   0.001020   0.001114   0.000405
    23  H    0.000000  -0.000000   0.000000  -0.000000  -0.000000   0.000000
    24  H   -0.000000   0.000000  -0.000000   0.000000   0.000000  -0.000000
    25  H    0.000000   0.000000  -0.000000  -0.000000   0.000000   0.000000
    26  H    0.000904   0.000019   0.000001   0.000001  -0.000025   0.000000
    27  H   -0.000338   0.000032   0.000001  -0.000000   0.000000   0.000000
    28  H   -0.022149  -0.002590   0.000505   0.000153  -0.002214   0.000000
    29  H   -0.019748   0.001649  -0.000038  -0.000025  -0.003046   0.000000
    30  H    0.000760  -0.018795   0.384072  -0.021077   0.001606  -0.000081
    31  H    0.000851  -0.021387   0.384136  -0.022545   0.000147  -0.000001
    32  H    0.001095   0.001454  -0.019463   0.383982  -0.019177  -0.000000
    33  H   -0.000299   0.000401  -0.022579   0.383357  -0.022222  -0.000000
    34  H   -0.015348   0.001726   0.001561  -0.020475   0.382924   0.000000
    35  H   -0.024483   0.000165  -0.001382  -0.025253   0.381770  -0.000000
    36  H   -0.000000   0.000000  -0.000000   0.000000   0.000000  -0.000270
    37  H    0.000000   0.000000   0.000000  -0.000000  -0.000000   0.000063
    38  H   -0.000000   0.000000   0.000000   0.000000   0.000000  -0.000432
              19         20         21         22         23         24
     1  C    0.381503  -0.000016  -0.000013  -0.000001  -0.025040   0.001320
     2  C   -0.030238   0.000000  -0.000001   0.000000   0.394212  -0.024809
     3  C    0.000879   0.000000   0.000000   0.000000  -0.026859   0.393611
     4  C    0.000011  -0.000006   0.000087   0.000000   0.001423  -0.025134
     5  C    0.000712   0.000070  -0.003039   0.000001   0.000049   0.001372
     6  C   -0.024003   0.000023   0.000712   0.000061   0.001258   0.000009
     7  C   -0.002550  -0.024193  -0.002721  -0.004147  -0.000014   0.000001
     8  O   -0.000001  -0.000700  -0.018476  -0.000002   0.000000  -0.000005
     9  C   -0.000000  -0.022305   0.378384  -0.000868  -0.000000   0.000000
    10  C    0.000007   0.378964  -0.026168  -0.024743   0.000000  -0.000000
    11  C   -0.000000  -0.001920  -0.024744   0.000073   0.000000  -0.000000
    12  C    0.000000  -0.000311   0.000813   0.001742  -0.000000   0.000000
    13  N    0.000000  -0.000140   0.000034  -0.027792   0.000000  -0.000000
    14  C   -0.000000  -0.020387  -0.001634   0.383293  -0.000000   0.000000
    15  C    0.000000  -0.004061  -0.000003  -0.026001   0.000000  -0.000000
    16  C   -0.000000   0.000117  -0.000000   0.001020  -0.000000   0.000000
    17  C   -0.000000   0.000017   0.000000   0.001114  -0.000000   0.000000
    18  O   -0.001649  -0.000260   0.000007   0.000405   0.000000  -0.000000
    19  C    4.713006   0.000000  -0.000000  -0.000000  -0.004265  -0.000016
    20  H    0.000000   0.623184   0.001845   0.001725  -0.000000  -0.000000
    21  H   -0.000000   0.001845   0.639773   0.000304  -0.000000   0.000000
    22  H   -0.000000   0.001725   0.000304   0.638818  -0.000000   0.000000
    23  H   -0.004265  -0.000000  -0.000000  -0.000000   0.605283  -0.003751
    24  H   -0.000016  -0.000000   0.000000   0.000000  -0.003751   0.593965
    25  H    0.000000  -0.000000   0.000000  -0.000000  -0.000032  -0.003714
    26  H   -0.000000   0.000123   0.001624   0.000001   0.000000  -0.000000
    27  H    0.000000   0.000002  -0.007065  -0.000003  -0.000000   0.000000
    28  H    0.000000  -0.000723  -0.000024  -0.000071  -0.000000   0.000000
    29  H   -0.000000   0.000002  -0.000033  -0.000036   0.000000  -0.000000
    30  H    0.000000   0.000026  -0.000001   0.001409   0.000000  -0.000000
    31  H   -0.000000   0.000035   0.000000  -0.007124  -0.000000   0.000000
    32  H    0.000000  -0.000004   0.000000  -0.000031   0.000000  -0.000000
    33  H    0.000000  -0.000000   0.000000  -0.000025   0.000000  -0.000000
    34  H    0.000000   0.000000   0.000000  -0.000029   0.000000  -0.000000
    35  H    0.000000  -0.000001   0.000000   0.000305   0.000000  -0.000000
    36  H    0.380519   0.000000  -0.000000   0.000000   0.000070   0.000000
    37  H    0.382768  -0.000000  -0.000000  -0.000000   0.000163  -0.000003
    38  H    0.380835  -0.000000   0.000000   0.000000   0.000071   0.000000
              25         26         27         28         29         30
     1  C    0.000036   0.000000  -0.000000  -0.000000   0.000000   0.000000
     2  C    0.001383   0.000000  -0.000000   0.000000   0.000000  -0.000000
     3  C   -0.024648   0.000000  -0.000000  -0.000000   0.000000   0.000000
     4  C    0.393455  -0.000005   0.000001   0.000000  -0.000000  -0.000000
     5  C   -0.025314   0.000102  -0.000037  -0.000001   0.000000  -0.000000
     6  C    0.001231   0.000001  -0.000000   0.000000   0.000000  -0.000005
     7  C   -0.000018  -0.000019  -0.000017   0.000002   0.000000  -0.000053
     8  O   -0.001100  -0.001995   0.000494   0.000009  -0.000004  -0.000000
     9  C    0.000033  -0.020164  -0.023075  -0.000532   0.001170   0.000051
    10  C    0.000000   0.000488   0.001232  -0.000296   0.000077  -0.005219
    11  C   -0.000003   0.380075   0.383705  -0.025311  -0.021077   0.000002
    12  C    0.000000  -0.020683  -0.022068   0.377576   0.383819  -0.000034
    13  N    0.000000   0.000904  -0.000338  -0.022149  -0.019748   0.000760
    14  C    0.000000   0.000019   0.000032  -0.002590   0.001649  -0.018795
    15  C   -0.000000   0.000001   0.000001   0.000505  -0.000038   0.384072
    16  C   -0.000000   0.000001  -0.000000   0.000153  -0.000025  -0.021077
    17  C    0.000000  -0.000025   0.000000  -0.002214  -0.003046   0.001606
    18  O    0.000000   0.000000   0.000000   0.000000   0.000000  -0.000081
    19  C    0.000000  -0.000000   0.000000   0.000000  -0.000000   0.000000
    20  H   -0.000000   0.000123   0.000002  -0.000723   0.000002   0.000026
    21  H    0.000000   0.001624  -0.007065  -0.000024  -0.000033  -0.000001
    22  H   -0.000000   0.000001  -0.000003  -0.000071  -0.000036   0.001409
    23  H   -0.000032   0.000000  -0.000000  -0.000000   0.000000   0.000000
    24  H   -0.003714  -0.000000   0.000000   0.000000  -0.000000  -0.000000
    25  H    0.589512  -0.000001   0.000000   0.000000  -0.000000   0.000000
    26  H   -0.000001   0.618187  -0.022902  -0.003805  -0.000520  -0.000000
    27  H    0.000000  -0.022902   0.629501   0.001946  -0.004722   0.000000
    28  H    0.000000  -0.003805   0.001946   0.664194  -0.026345  -0.000038
    29  H   -0.000000  -0.000520  -0.004722  -0.026345   0.625487   0.000002
    30  H    0.000000  -0.000000   0.000000  -0.000038   0.000002   0.629070
    31  H   -0.000000   0.000000  -0.000000  -0.000006   0.000001  -0.023032
    32  H   -0.000000  -0.000000   0.000000  -0.000011  -0.000001   0.000636
    33  H    0.000000   0.000000  -0.000000  -0.000437   0.000045  -0.005538
    34  H    0.000000  -0.000002  -0.000000   0.000027  -0.000216  -0.000042
    35  H   -0.000000   0.000000   0.000000  -0.000067   0.000097   0.000000
    36  H   -0.000000  -0.000000   0.000000  -0.000000   0.000000   0.000000
    37  H    0.000000   0.000000  -0.000000  -0.000000   0.000000   0.000000
    38  H   -0.000000   0.000000   0.000000   0.000000  -0.000000  -0.000000
              31         32         33         34         35         36
     1  C   -0.000000   0.000000   0.000000   0.000000   0.000000  -0.021141
     2  C    0.000000  -0.000000  -0.000000  -0.000000  -0.000000   0.000685
     3  C   -0.000000   0.000000   0.000000  -0.000000   0.000000  -0.000024
     4  C    0.000000  -0.000000  -0.000000  -0.000000  -0.000000   0.000003
     5  C    0.000000  -0.000000   0.000000  -0.000000   0.000000  -0.000001
     6  C    0.000001  -0.000000  -0.000000  -0.000000  -0.000000  -0.001772
     7  C   -0.000010  -0.000000   0.000001   0.000000   0.000000  -0.000076
     8  O    0.000000  -0.000000  -0.000000   0.000000  -0.000000  -0.000000
     9  C   -0.000014   0.000000   0.000000  -0.000001  -0.000001  -0.000000
    10  C    0.001131  -0.000011   0.000003  -0.000024  -0.000014  -0.000002
    11  C   -0.000001   0.000000  -0.000001   0.000043  -0.000022   0.000000
    12  C   -0.000019  -0.000003  -0.000387  -0.004910   0.001821   0.000000
    13  N    0.000851   0.001095  -0.000299  -0.015348  -0.024483  -0.000000
    14  C   -0.021387   0.001454   0.000401   0.001726   0.000165   0.000000
    15  C    0.384136  -0.019463  -0.022579   0.001561  -0.001382  -0.000000
    16  C   -0.022545   0.383982   0.383357  -0.020475  -0.025253   0.000000
    17  C    0.000147  -0.019177  -0.022222   0.382924   0.381770   0.000000
    18  O   -0.000001  -0.000000  -0.000000   0.000000  -0.000000  -0.000270
    19  C   -0.000000   0.000000   0.000000   0.000000   0.000000   0.380519
    20  H    0.000035  -0.000004  -0.000000   0.000000  -0.000001   0.000000
    21  H    0.000000   0.000000   0.000000   0.000000   0.000000  -0.000000
    22  H   -0.007124  -0.000031  -0.000025  -0.000029   0.000305   0.000000
    23  H   -0.000000   0.000000   0.000000   0.000000   0.000000   0.000070
    24  H    0.000000  -0.000000  -0.000000  -0.000000  -0.000000   0.000000
    25  H   -0.000000  -0.000000   0.000000   0.000000  -0.000000  -0.000000
    26  H    0.000000  -0.000000   0.000000  -0.000002   0.000000  -0.000000
    27  H   -0.000000   0.000000  -0.000000  -0.000000   0.000000   0.000000
    28  H   -0.000006  -0.000011  -0.000437   0.000027  -0.000067  -0.000000
    29  H    0.000001  -0.000001   0.000045  -0.000216   0.000097   0.000000
    30  H   -0.023032   0.000636  -0.005538  -0.000042   0.000000   0.000000
    31  H    0.630941  -0.005320   0.001935  -0.000015   0.000178   0.000000
    32  H   -0.005320   0.625967  -0.023283   0.000193  -0.003653  -0.000000
    33  H    0.001935  -0.023283   0.640884  -0.003816   0.001933   0.000000
    34  H   -0.000015   0.000193  -0.003816   0.620576  -0.023808  -0.000000
    35  H    0.000178  -0.003653   0.001933  -0.023808   0.634323  -0.000000
    36  H    0.000000  -0.000000   0.000000  -0.000000  -0.000000   0.607374
    37  H   -0.000000  -0.000000   0.000000   0.000000   0.000000  -0.021932
    38  H    0.000000   0.000000  -0.000000  -0.000000  -0.000000  -0.018384
              37         38
     1  C   -0.020509  -0.021119
     2  C   -0.005662   0.000754
     3  C    0.000061  -0.000023
     4  C   -0.000000   0.000002
     5  C   -0.000016   0.000001
     6  C    0.001130  -0.001903
     7  C    0.000014  -0.000051
     8  O    0.000000  -0.000000
     9  C    0.000000  -0.000000
    10  C    0.000000  -0.000003
    11  C    0.000000  -0.000000
    12  C   -0.000000  -0.000000
    13  N    0.000000  -0.000000
    14  C    0.000000   0.000000
    15  C    0.000000   0.000000
    16  C   -0.000000   0.000000
    17  C   -0.000000   0.000000
    18  O    0.000063  -0.000432
    19  C    0.382768   0.380835
    20  H   -0.000000  -0.000000
    21  H   -0.000000   0.000000
    22  H   -0.000000   0.000000
    23  H    0.000163   0.000071
    24  H   -0.000003   0.000000
    25  H    0.000000  -0.000000
    26  H    0.000000   0.000000
    27  H   -0.000000   0.000000
    28  H   -0.000000   0.000000
    29  H    0.000000  -0.000000
    30  H    0.000000  -0.000000
    31  H   -0.000000   0.000000
    32  H   -0.000000   0.000000
    33  H    0.000000  -0.000000
    34  H    0.000000  -0.000000
    35  H    0.000000  -0.000000
    36  H   -0.021932  -0.018384
    37  H    0.624945  -0.022063
    38  H   -0.022063   0.606227
 Mulliken charges:
               1
     1  C    0.034671
     2  C   -0.080228
     3  C   -0.047870
     4  C   -0.086669
     5  C    0.130760
     6  C   -0.067764
     7  C    0.182809
     8  O   -0.249359
     9  C    0.085615
    10  C   -0.073714
    11  C   -0.104277
    12  C   -0.015126
    13  N   -0.285700
    14  C    0.047046
    15  C   -0.107749
    16  C   -0.109687
    17  C   -0.019373
    18  O   -0.230895
    19  C   -0.177519
    20  H    0.068891
    21  H    0.060338
    22  H    0.060601
    23  H    0.057432
    24  H    0.067153
    25  H    0.069179
    26  H    0.068593
    27  H    0.063316
    28  H    0.040206
    29  H    0.063461
    30  H    0.056282
    31  H    0.060115
    32  H    0.057632
    33  H    0.050028
    34  H    0.061634
    35  H    0.058090
    36  H    0.074951
    37  H    0.061039
    38  H    0.076087
 Sum of Mulliken charges =  -0.00000
 Mulliken charges with hydrogens summed into heavy atoms:
               1
     1  C    0.034671
     2  C   -0.022796
     3  C    0.019283
     4  C   -0.017490
     5  C    0.130760
     6  C   -0.067764
     7  C    0.182809
     8  O   -0.249359
     9  C    0.145953
    10  C   -0.004823
    11  C    0.027632
    12  C    0.088541
    13  N   -0.285700
    14  C    0.107647
    15  C    0.008648
    16  C   -0.002026
    17  C    0.100351
    18  O   -0.230895
    19  C    0.034558
 Electronic spatial extent (au):  <R**2>=           5282.7817
 Charge=             -0.0000 electrons
 Dipole moment (field-independent basis, Debye):
    X=              0.2987    Y=             -0.4408    Z=              0.8090  Tot=              0.9685
 Quadrupole moment (field-independent basis, Debye-Ang):
   XX=            -98.3804   YY=           -109.2198   ZZ=           -106.1300
   XY=             -0.5977   XZ=              3.2426   YZ=              0.0234
 Traceless Quadrupole moment (field-independent basis, Debye-Ang):
   XX=              6.1964   YY=             -4.6431   ZZ=             -1.5533
   XY=             -0.5977   XZ=              3.2426   YZ=              0.0234
 Octapole moment (field-independent basis, Debye-Ang**2):
  XXX=            -10.3127  YYY=             -8.7405  ZZZ=              0.0247  XYY=              2.8740
  XXY=              2.7605  XXZ=              8.8752  XZZ=              0.3235  YZZ=              3.4897
  YYZ=             -1.0080  XYZ=             -3.0673
 Hexadecapole moment (field-independent basis, Debye-Ang**3):
 XXXX=          -4823.3448 YYYY=          -1514.2756 ZZZZ=           -220.5629 XXXY=             11.2887
 XXXZ=             12.9370 YYYX=             -3.4363 YYYZ=             -0.7526 ZZZX=              4.7857
 ZZZY=             -5.5040 XXYY=          -1036.9714 XXZZ=           -918.8592 YYZZ=           -280.7339
 XXYZ=            -21.3139 YYXZ=             -6.9861 ZZXY=             -0.4578
 N-N= 1.484009646448D+03 E-N=-4.863269700183D+03  KE= 8.035667500877D+02
 ******************************Gaussian NBO Version 3.1******************************
             N A T U R A L   A T O M I C   O R B I T A L   A N D
          N A T U R A L   B O N D   O R B I T A L   A N A L Y S I S
 ******************************Gaussian NBO Version 3.1******************************
       /RESON  / : Allow strongly delocalized NBO set
       /NLMO   / : Form Natural Localized Molecular Orbitals
       /NMR /    : Analyze NMR Sheilding Tensor 

 Analyzing the SCF density

 Job title: Title Card Required                                             

 Storage needed:     43472 in NPA,     53775 in NBO,    102144 in NLMO ( 104850000 available)
 GSVD:  LWork=      -13908 too small for GESVD, short by       66690 words or       66690 for optimal perf.


 NATURAL POPULATIONS:  Natural atomic orbital occupancies 
                                                          
   NAO  Atom  No  lang   Type(AO)    Occupancy      Energy
 ----------------------------------------------------------
     1    C    1  S      Cor( 1S)     1.99991     -10.98402
     2    C    1  S      Val( 2S)     1.08182      -0.20065
     3    C    1  px     Val( 2p)     0.96019       0.16023
     4    C    1  py     Val( 2p)     0.94898       0.15161
     5    C    1  pz     Val( 2p)     0.93227       0.02190

     6    C    2  S      Cor( 1S)     1.99995     -10.94637
     7    C    2  S      Val( 2S)     1.08002      -0.18512
     8    C    2  px     Val( 2p)     0.97260       0.15435
     9    C    2  py     Val( 2p)     0.97190       0.15438
    10    C    2  pz     Val( 2p)     1.05023      -0.00443

    11    C    3  S      Cor( 1S)     1.99994     -10.96371
    12    C    3  S      Val( 2S)     1.08007      -0.18868
    13    C    3  px     Val( 2p)     0.98392       0.14446
    14    C    3  py     Val( 2p)     0.98340       0.14523
    15    C    3  pz     Val( 2p)     0.95959       0.01050

    16    C    4  S      Cor( 1S)     1.99994     -10.94797
    17    C    4  S      Val( 2S)     1.07689      -0.18508
    18    C    4  px     Val( 2p)     0.97055       0.15259
    19    C    4  py     Val( 2p)     0.98922       0.14337
    20    C    4  pz     Val( 2p)     1.05945      -0.00930

    21    C    5  S      Cor( 1S)     1.99978     -11.03262
    22    C    5  S      Val( 2S)     1.06128      -0.21549
    23    C    5  px     Val( 2p)     0.86831       0.14448
    24    C    5  py     Val( 2p)     0.92338       0.15813
    25    C    5  pz     Val( 2p)     0.95925      -0.01093

    26    C    6  S      Cor( 1S)     1.99991     -10.96128
    27    C    6  S      Val( 2S)     1.08790      -0.20877
    28    C    6  px     Val( 2p)     0.97218       0.14149
    29    C    6  py     Val( 2p)     0.96614       0.14311
    30    C    6  pz     Val( 2p)     1.10392      -0.02387

    31    C    7  S      Cor( 1S)     1.99996     -11.05604
    32    C    7  S      Val( 2S)     1.07975      -0.24669
    33    C    7  px     Val( 2p)     0.93912       0.11121
    34    C    7  py     Val( 2p)     0.84840       0.17578
    35    C    7  pz     Val( 2p)     0.89266      -0.00823

    36    O    8  S      Cor( 1S)     1.99999     -20.20753
    37    O    8  S      Val( 2S)     1.73423      -1.02091
    38    O    8  px     Val( 2p)     1.16688      -0.06346
    39    O    8  py     Val( 2p)     1.58533      -0.25860
    40    O    8  pz     Val( 2p)     1.76861      -0.33030

    41    C    9  S      Cor( 1S)     1.99988     -11.05953
    42    C    9  S      Val( 2S)     1.08641      -0.24000
    43    C    9  px     Val( 2p)     0.85980       0.08421
    44    C    9  py     Val( 2p)     0.93763       0.07578
    45    C    9  pz     Val( 2p)     0.96118       0.07232

    46    C   10  S      Cor( 1S)     1.99997     -11.00752
    47    C   10  S      Val( 2S)     1.10397      -0.23661
    48    C   10  px     Val( 2p)     0.98865       0.06330
    49    C   10  py     Val( 2p)     0.99104       0.06239
    50    C   10  pz     Val( 2p)     1.00694       0.06908

    51    C   11  S      Cor( 1S)     1.99996     -10.98880
    52    C   11  S      Val( 2S)     1.08998      -0.20680
    53    C   11  px     Val( 2p)     0.96826       0.08577
    54    C   11  py     Val( 2p)     0.99331       0.07954
    55    C   11  pz     Val( 2p)     1.03353       0.07342

    56    C   12  S      Cor( 1S)     1.99994     -11.01623
    57    C   12  S      Val( 2S)     1.07291      -0.20179
    58    C   12  px     Val( 2p)     0.99761       0.06782
    59    C   12  py     Val( 2p)     0.92584       0.09127
    60    C   12  pz     Val( 2p)     0.96403       0.09430

    61    N   13  S      Cor( 1S)     1.99999     -15.24702
    62    N   13  S      Val( 2S)     1.45513      -0.60157
    63    N   13  px     Val( 2p)     1.03537       0.04103
    64    N   13  py     Val( 2p)     1.08890       0.02853
    65    N   13  pz     Val( 2p)     1.69404      -0.21415

    66    C   14  S      Cor( 1S)     1.99993     -11.02372
    67    C   14  S      Val( 2S)     1.08846      -0.21792
    68    C   14  px     Val( 2p)     0.90619       0.10687
    69    C   14  py     Val( 2p)     0.91744       0.09624
    70    C   14  pz     Val( 2p)     0.99267       0.08347

    71    C   15  S      Cor( 1S)     1.99997     -10.97534
    72    C   15  S      Val( 2S)     1.08846      -0.19435
    73    C   15  px     Val( 2p)     0.97972       0.08928
    74    C   15  py     Val( 2p)     1.00245       0.08821
    75    C   15  pz     Val( 2p)     1.00764       0.09096

    76    C   16  S      Cor( 1S)     1.99998     -10.97651
    77    C   16  S      Val( 2S)     1.07943      -0.18980
    78    C   16  px     Val( 2p)     0.99092       0.08661
    79    C   16  py     Val( 2p)     1.00627       0.08384
    80    C   16  pz     Val( 2p)     1.00154       0.08958

    81    C   17  S      Cor( 1S)     1.99994     -11.00796
    82    C   17  S      Val( 2S)     1.07497      -0.19645
    83    C   17  px     Val( 2p)     0.91558       0.10655
    84    C   17  py     Val( 2p)     0.97999       0.07857
    85    C   17  pz     Val( 2p)     0.99571       0.08106

    86    O   18  S      Cor( 1S)     1.99999     -20.11355
    87    O   18  S      Val( 2S)     1.80562      -1.06216
    88    O   18  px     Val( 2p)     1.90967      -0.34984
    89    O   18  py     Val( 2p)     1.35689      -0.11720
    90    O   18  pz     Val( 2p)     1.16962      -0.10983

    91    C   19  S      Cor( 1S)     1.99997     -10.97587
    92    C   19  S      Val( 2S)     1.07801      -0.18623
    93    C   19  px     Val( 2p)     1.04195       0.07243
    94    C   19  py     Val( 2p)     0.98366       0.08486
    95    C   19  pz     Val( 2p)     1.04275       0.07277

    96    H   20  S      Val( 1S)     0.95227       0.04786

    97    H   21  S      Val( 1S)     0.97649       0.03844

    98    H   22  S      Val( 1S)     0.97171       0.06353

    99    H   23  S      Val( 1S)     0.96783       0.06747

   100    H   24  S      Val( 1S)     0.96102       0.06165

   101    H   25  S      Val( 1S)     0.95565       0.07389

   102    H   26  S      Val( 1S)     0.95247       0.06964

   103    H   27  S      Val( 1S)     0.95826       0.07041

   104    H   28  S      Val( 1S)     0.98785       0.04989

   105    H   29  S      Val( 1S)     0.96322       0.06006

   106    H   30  S      Val( 1S)     0.96394       0.06979

   107    H   31  S      Val( 1S)     0.96060       0.07562

   108    H   32  S      Val( 1S)     0.96163       0.06902

   109    H   33  S      Val( 1S)     0.96925       0.06394

   110    H   34  S      Val( 1S)     0.96386       0.05905

   111    H   35  S      Val( 1S)     0.96923       0.06651

   112    H   36  S      Val( 1S)     0.94128       0.08150

   113    H   37  S      Val( 1S)     0.95559       0.07400

   114    H   38  S      Val( 1S)     0.94036       0.08298


 Summary of Natural Population Analysis:                  
                                                          
                                       Natural Population 
                Natural  -----------------------------------------------
    Atom  No    Charge         Core      Valence    Rydberg      Total
 -----------------------------------------------------------------------
      C    1    0.07684      1.99991     3.92325    0.00000     5.92316
      C    2   -0.07470      1.99995     4.07475    0.00000     6.07470
      C    3   -0.00692      1.99994     4.00698    0.00000     6.00692
      C    4   -0.09606      1.99994     4.09612    0.00000     6.09606
      C    5    0.18800      1.99978     3.81222    0.00000     5.81200
      C    6   -0.13003      1.99991     4.13012    0.00000     6.13003
      C    7    0.24010      1.99996     3.75994    0.00000     5.75990
      O    8   -0.25504      1.99999     6.25505    0.00000     8.25504
      C    9    0.15510      1.99988     3.84502    0.00000     5.84490
      C   10   -0.09057      1.99997     4.09060    0.00000     6.09057
      C   11   -0.08503      1.99996     4.08508    0.00000     6.08503
      C   12    0.03967      1.99994     3.96039    0.00000     5.96033
      N   13   -0.27343      1.99999     5.27344    0.00000     7.27343
      C   14    0.09530      1.99993     3.90477    0.00000     5.90470
      C   15   -0.07825      1.99997     4.07827    0.00000     6.07825
      C   16   -0.07816      1.99998     4.07818    0.00000     6.07816
      C   17    0.03381      1.99994     3.96625    0.00000     5.96619
      O   18   -0.24179      1.99999     6.24180    0.00000     8.24179
      C   19   -0.14634      1.99997     4.14637    0.00000     6.14634
      H   20    0.04773      0.00000     0.95227    0.00000     0.95227
      H   21    0.02351      0.00000     0.97649    0.00000     0.97649
      H   22    0.02829      0.00000     0.97171    0.00000     0.97171
      H   23    0.03217      0.00000     0.96783    0.00000     0.96783
      H   24    0.03898      0.00000     0.96102    0.00000     0.96102
      H   25    0.04435      0.00000     0.95565    0.00000     0.95565
      H   26    0.04753      0.00000     0.95247    0.00000     0.95247
      H   27    0.04174      0.00000     0.95826    0.00000     0.95826
      H   28    0.01215      0.00000     0.98785    0.00000     0.98785
      H   29    0.03678      0.00000     0.96322    0.00000     0.96322
      H   30    0.03606      0.00000     0.96394    0.00000     0.96394
      H   31    0.03940      0.00000     0.96060    0.00000     0.96060
      H   32    0.03837      0.00000     0.96163    0.00000     0.96163
      H   33    0.03075      0.00000     0.96925    0.00000     0.96925
      H   34    0.03614      0.00000     0.96386    0.00000     0.96386
      H   35    0.03077      0.00000     0.96923    0.00000     0.96923
      H   36    0.05872      0.00000     0.94128    0.00000     0.94128
      H   37    0.04441      0.00000     0.95559    0.00000     0.95559
      H   38    0.05964      0.00000     0.94036    0.00000     0.94036
 =======================================================================
   * Total *   -0.00000     37.99890   100.00110    0.00000   138.00000

                                 Natural Population      
 --------------------------------------------------------
   Core                      37.99890 ( 99.9971% of  38)
   Valence                  100.00110 (100.0011% of 100)
   Natural Minimal Basis    138.00000 (100.0000% of 138)
   Natural Rydberg Basis      0.00000 (  0.0000% of 138)
 --------------------------------------------------------

    Atom  No          Natural Electron Configuration
 ----------------------------------------------------------------------------
      C    1      [core]2S( 1.08)2p( 2.84)
      C    2      [core]2S( 1.08)2p( 2.99)
      C    3      [core]2S( 1.08)2p( 2.93)
      C    4      [core]2S( 1.08)2p( 3.02)
      C    5      [core]2S( 1.06)2p( 2.75)
      C    6      [core]2S( 1.09)2p( 3.04)
      C    7      [core]2S( 1.08)2p( 2.68)
      O    8      [core]2S( 1.73)2p( 4.52)
      C    9      [core]2S( 1.09)2p( 2.76)
      C   10      [core]2S( 1.10)2p( 2.99)
      C   11      [core]2S( 1.09)2p( 3.00)
      C   12      [core]2S( 1.07)2p( 2.89)
      N   13      [core]2S( 1.46)2p( 3.82)
      C   14      [core]2S( 1.09)2p( 2.82)
      C   15      [core]2S( 1.09)2p( 2.99)
      C   16      [core]2S( 1.08)2p( 3.00)
      C   17      [core]2S( 1.07)2p( 2.89)
      O   18      [core]2S( 1.81)2p( 4.44)
      C   19      [core]2S( 1.08)2p( 3.07)
      H   20            1S( 0.95)
      H   21            1S( 0.98)
      H   22            1S( 0.97)
      H   23            1S( 0.97)
      H   24            1S( 0.96)
      H   25            1S( 0.96)
      H   26            1S( 0.95)
      H   27            1S( 0.96)
      H   28            1S( 0.99)
      H   29            1S( 0.96)
      H   30            1S( 0.96)
      H   31            1S( 0.96)
      H   32            1S( 0.96)
      H   33            1S( 0.97)
      H   34            1S( 0.96)
      H   35            1S( 0.97)
      H   36            1S( 0.94)
      H   37            1S( 0.96)
      H   38            1S( 0.94)


 NATURAL BOND ORBITAL ANALYSIS:

                       Occupancies       Lewis Structure    Low   High
           Occ.    -------------------  -----------------   occ   occ
  Cycle   Thresh.   Lewis   Non-Lewis     CR  BD  3C  LP    (L)   (NL)   Dev
 =============================================================================
   1(1)    1.90   134.44120   3.55880     19  43   0   7     3      3    0.45
   2(2)    1.90   134.44120   3.55880     19  43   0   7     3      3    0.45
   3(1)    1.80   134.35968   3.64032     19  42   0   8     3      3    0.45
   4(2)    1.80   134.35968   3.64032     19  42   0   8     3      3    0.45
   5(1)    1.70   134.35968   3.64032     19  42   0   8     3      3    0.45
   6(2)    1.70   134.35968   3.64032     19  42   0   8     3      3    0.45
   7(1)    1.60   135.53039   2.46961     19  44   0   6     1      3    0.43
   8(2)    1.60   136.13715   1.86285     19  45   0   5     0      3    0.43
   9(3)    1.60   136.10304   1.89696     19  45   0   5     0      3    0.45
  10(4)    1.60   136.13715   1.86285     19  45   0   5     0      3    0.43
  11(1)    1.50   136.13715   1.86285     19  45   0   5     0      3    0.43
  12(2)    1.50   136.10304   1.89696     19  45   0   5     0      3    0.45
  13(3)    1.50   136.13715   1.86285     19  45   0   5     0      3    0.43
  14(1)    1.60   136.13715   1.86285     19  45   0   5     0      3    0.43
 -----------------------------------------------------------------------------

 Structure accepted: RESONANCE keyword permits strongly delocalized structure

 --------------------------------------------------------
   Core                     37.99890 ( 99.997% of  38)
   Valence Lewis            98.13825 ( 98.138% of 100)
  ==================       ============================
   Total Lewis             136.13715 ( 98.650% of 138)
  -----------------------------------------------------
   Valence non-Lewis         1.86285 (  1.350% of 138)
   Rydberg non-Lewis         0.00000 (  0.000% of 138)
  ==================       ============================
   Total non-Lewis           1.86285 (  1.350% of 138)
 --------------------------------------------------------


       (Occupancy)   Bond orbital/ Coefficients/ Hybrids
 ---------------------------------------------------------------------------------
     1. (1.98527) BD ( 1) C   1 - C   2  
                ( 50.02%)   0.7072* C   1 s( 33.73%)p 1.97( 66.27%)
                                            0.0000  0.5807 -0.7083 -0.3986  0.0472
                ( 49.98%)   0.7070* C   2 s( 34.47%)p 1.90( 65.53%)
                                            0.0001  0.5871  0.6996  0.4032 -0.0574
     2. (1.65823) BD ( 2) C   1 - C   2  
                ( 45.52%)   0.6747* C   1 s(  0.00%)p 1.00(100.00%)
                                            0.0000  0.0007  0.0054  0.1091  0.9940
                ( 54.48%)   0.7381* C   2 s(  0.00%)p 1.00(100.00%)
                                            0.0000  0.0008  0.0126  0.1184  0.9929
     3. (1.98108) BD ( 1) C   1 - C   6  
                ( 49.46%)   0.7033* C   1 s( 34.62%)p 1.89( 65.38%)
                                            0.0001  0.5884  0.7059 -0.3925  0.0388
                ( 50.54%)   0.7109* C   6 s( 35.65%)p 1.80( 64.35%)
                                            0.0000  0.5971 -0.6734  0.4336 -0.0454
     4. (1.98734) BD ( 1) C   1 - C  19  
                ( 50.15%)   0.7082* C   1 s( 31.66%)p 2.16( 68.34%)
                                           -0.0000  0.5626 -0.0071  0.8217 -0.0905
                ( 49.85%)   0.7060* C  19 s( 25.58%)p 2.91( 74.42%)
                                            0.0001  0.5058  0.0301 -0.8571  0.0927
     5. (1.98978) BD ( 1) C   2 - C   3  
                ( 49.56%)   0.7040* C   2 s( 34.19%)p 1.92( 65.81%)
                                            0.0001  0.5847 -0.0188 -0.8053  0.0958
                ( 50.44%)   0.7102* C   3 s( 34.33%)p 1.91( 65.67%)
                                            0.0000  0.5859  0.0046  0.8044 -0.0982
     6. (1.98876) BD ( 1) C   2 - H  23  
                ( 51.63%)   0.7186* C   2 s( 31.33%)p 2.19( 68.67%)
                                           -0.0001  0.5598 -0.7142  0.4182 -0.0412
                ( 48.37%)   0.6955* H  23 s(100.00%)
                                            1.0000
[...]
   16      -9.9207      -10.3707       0.4501       -10.6133       0.6926
   17    -118.3227     -128.3394      10.0167      -127.7386       9.4160
   18     -25.0341      -50.0513      25.0173       -50.0955      25.0615
   20      -1.0407       -1.1858       0.1452        -1.1973       0.1566
   23      -0.2953       -0.4353       0.1400        -1.2854       0.9901
   43      -0.3974       -1.8280       1.4306        -1.3624       0.9650
   45      -0.3878       -1.8164       1.4286        -1.3549       0.9671
   63     271.9301       -0.0056     271.9357        -0.0055     271.9356
   68     -34.5661      -69.7096      35.1436       -69.6042      35.0381
   69    -417.0253     -454.1557      37.1304      -456.6673      39.6420
 Sum     -344.7520     -730.8346     386.0826      -734.5020     389.7500

 Contributions to Isotropic shielding for atom   19 (   218.0417 ppm):
                         Standard Origin              Atomic Origin
 NLMO      Total    Paramagnetic  Diamagnetic   Paramagnetic  Diamagnetic
    1      -1.9499       -1.3416      -0.6083        -2.4398       0.4899
    2      -0.9382       -0.7686      -0.1696        -2.5918       1.6536
    3      -1.0031       -1.4925       0.4894        -1.3031       0.3000
    4       3.7662      -10.8550      14.6212        -3.1867       6.9529
    6      -0.6770       -1.6405       0.9635        -1.7139       1.0369
    8       0.8485       -0.3379       1.1864        -0.3361       1.1846
   15      -0.3780        0.0693      -0.4474        -1.2430       0.8650
   17      -0.4670       -0.2625      -0.2045        -1.2012       0.7342
   18       0.2432        0.3243      -0.0811        -1.2405       1.4837
   43       7.2013       -4.9664      12.1677        -4.2040      11.4053
   44       3.9141        5.5080      -1.5938        -7.2681      11.1823
   45       7.0269       -5.4830      12.5099        -4.4447      11.4716
   64     200.0788       -0.0033     200.0821         0.0032     200.0756
 Sum      217.6657      -21.2498     238.9155       -31.1697     248.8354

 Contributions to Isotropic shielding for atom   20 (    31.4884 ppm):
                         Standard Origin              Atomic Origin
 NLMO      Total    Paramagnetic  Diamagnetic   Paramagnetic  Diamagnetic
   13       0.1497       -0.6032       0.7529        -1.1441       1.2938
   16       2.0318        1.4556       0.5762         1.2465       0.7853
   18       0.1460       -0.2572       0.4032        -0.8548       1.0008
   19       0.0649       -0.5000       0.5649        -1.0609       1.1258
   20       1.2834        0.8514       0.4320         0.6786       0.6048
   23       1.1022        1.2884      -0.1862         0.3757       0.7265
   24      25.7686        0.1178      25.6508         0.3467      25.4220
   29      -0.1809       -1.2092       1.0282        -0.7950       0.6141
   33      -0.1252       -0.7707       0.6455        -1.0521       0.9269
   36      -0.1892       -1.3336       1.1444        -0.9638       0.7747
 Sum       30.0512       -0.9607      31.0118        -3.2234      33.2745

 Contributions to Isotropic shielding for atom   21 (    31.0850 ppm):
                         Standard Origin              Atomic Origin
 NLMO      Total    Paramagnetic  Diamagnetic   Paramagnetic  Diamagnetic
   13       0.1064       -0.6004       0.7068        -1.2182       1.3246
   19       0.8062        0.4824       0.3238        -0.5652       1.3713
   20       1.0665       -0.3121       1.3787         0.3045       0.7620
   21       0.4725        0.7761      -0.3036        -0.6688       1.1413
   22      26.1529        0.3939      25.7591         0.7322      25.4207
   27      -0.0622       -1.4523       1.3902        -1.2444       1.1823
   31       0.1468       -0.4723       0.6191        -0.8882       1.0350
 Sum       28.6891       -1.1848      29.8739        -3.5481      32.2372

 Contributions to Isotropic shielding for atom   22 (    31.2496 ppm):
                         Standard Origin              Atomic Origin
 NLMO      Total    Paramagnetic  Diamagnetic   Paramagnetic  Diamagnetic
   18       0.0563       -0.3377       0.3940        -1.3648       1.4211
   23       1.3532       -0.6315       1.9847         0.4231       0.9301
   31       0.7395        0.9152      -0.1757        -0.7096       1.4491
   33       0.5775        1.0448      -0.4673        -0.3576       0.9352
   34      26.0763        0.1815      25.8948         0.5498      25.5265
   37      -0.0394       -1.4093       1.3699        -1.2240       1.1846
   38       0.2571       -0.9871       1.2442        -0.5482       0.8053
   42       0.0454       -1.0947       1.1401        -0.7230       0.7684
 Sum       29.0660       -2.3188      31.3848        -3.9543      33.0203

 Contributions to Isotropic shielding for atom   23 (    25.8857 ppm):
                         Standard Origin              Atomic Origin
 NLMO      Total    Paramagnetic  Diamagnetic   Paramagnetic  Diamagnetic
    1      -1.4058       -2.7909       1.3852        -1.9828       0.5771
    2       0.8117        1.6377      -0.8259        -2.5492       3.3610
    4      -0.7086        0.8276      -1.5362        -1.7874       1.0788
    5      -2.0480       -1.1947      -0.8534        -2.7528       0.7047
    6      27.0339        0.9406      26.0933         1.5545      25.4794
    9      -0.0794       -0.1553       0.0759        -1.1841       1.1048
   13       0.5385        0.9064      -0.3679        -0.7143       1.2529
   44      -0.1243       -1.2883       1.1640        -0.9034       0.7791
 Sum       24.0181       -1.1169      25.1350       -10.3196      34.3377

 Contributions to Isotropic shielding for atom   24 (    25.2808 ppm):
                         Standard Origin              Atomic Origin
 NLMO      Total    Paramagnetic  Diamagnetic   Paramagnetic  Diamagnetic
    2       1.2712        0.8535       0.4177         0.2085       1.0627
    5      -2.0865       -1.9342      -0.1524        -2.8263       0.7398
    6      -0.1058        0.1087      -0.2145        -1.2361       1.1303
    7      -1.8922       -2.6681       0.7760        -2.6132       0.7210
    8       0.4747        1.4180      -0.9433        -2.3481       2.8228
    9      26.9031        1.0987      25.8045         1.6107      25.2924
   11      -0.1151        0.6848      -0.8000        -1.2230       1.1078
   13       0.4570        0.7993      -0.3423        -0.9175       1.3746
 Sum       24.9064        0.3607      24.5457        -9.3450      34.2514

 Contributions to Isotropic shielding for atom   25 (    25.6867 ppm):
                         Standard Origin              Atomic Origin
 NLMO      Total    Paramagnetic  Diamagnetic   Paramagnetic  Diamagnetic
    2       1.2608       -0.4524       1.7132         0.0316       1.2292
    7      -1.8283       -0.9091      -0.9192        -2.5104       0.6821
    8       0.1716        0.0814       0.0902        -3.2307       3.4024
    9      -0.0495       -1.0061       0.9566        -1.1464       1.0968
   10      -0.8868       -2.5842       1.6973        -1.4439       0.5571
   11      26.5310        1.0734      25.4576         1.3170      25.2140
   14      -0.5139        0.4975      -1.0114        -2.1275       1.6136
   65      -0.1944       -0.4918       0.2973         0.8092      -1.0036
 Sum       24.4904       -3.7913      28.2817        -8.3012      32.7916

 Contributions to Isotropic shielding for atom   26 (    31.4559 ppm):
                         Standard Origin              Atomic Origin
 NLMO      Total    Paramagnetic  Diamagnetic   Paramagnetic  Diamagnetic
   19      -0.0614        0.4351      -0.4965        -1.8969       1.8355
   21       1.5425       -0.0744       1.6169         0.7375       0.8049
   25       0.9727        1.4932      -0.5205        -0.0175       0.9901
   26      25.9952        0.1212      25.8741         0.4948      25.5005
   27       1.9871        2.1399      -0.1528         0.1739       1.8132
   29       0.1409       -0.5053       0.6462        -0.9047       1.0456
   65      -0.4365       -0.2333      -0.2031         0.6003      -1.0367
 Sum       30.1405        3.3762      26.7643        -0.8126      30.9531

 Contributions to Isotropic shielding for atom   27 (    31.2030 ppm):
                         Standard Origin              Atomic Origin
 NLMO      Total    Paramagnetic  Diamagnetic   Paramagnetic  Diamagnetic
   19       0.0040        0.3647      -0.3606        -1.0153       1.0194
   21       1.3395        0.0767       1.2627         0.3854       0.9541
   22      -0.2200        0.3216      -0.5416        -1.4124       1.1924
   25       0.9509        1.7481      -0.7973        -0.0467       0.9976
   26       1.9945        2.0067      -0.0123         0.0985       1.8959
   27      26.1176       -0.1207      26.2382         0.4671      25.6505
   30      -0.0040       -0.5957       0.5917        -1.0866       1.0826
 Sum       30.1824        3.8015      26.3809        -2.6101      32.7925

 Contributions to Isotropic shielding for atom   28 (    32.1860 ppm):
                         Standard Origin              Atomic Origin
 NLMO      Total    Paramagnetic  Diamagnetic   Paramagnetic  Diamagnetic
   23      -0.1304        0.1908      -0.3212        -1.0313       0.9009
   25       1.2580       -0.5014       1.7594         0.3463       0.9117
   26       0.0504       -0.1023       0.1526        -1.0234       1.0737
   28       1.1135       -0.2685       1.3820         0.4106       0.7029
   29      26.6976        0.4352      26.2623         0.6496      26.0480
   30       1.5694        2.0782      -0.5088        -0.2559       1.8253
   40      -0.2787       -1.2946       1.0159        -0.8689       0.5902
 Sum       30.2797        0.5374      29.7423        -1.7730      32.0527

 Contributions to Isotropic shielding for atom   29 (    31.6672 ppm):
                         Standard Origin              Atomic Origin
 NLMO      Total    Paramagnetic  Diamagnetic   Paramagnetic  Diamagnetic
   25       0.8006        1.1614      -0.3608        -0.2804       1.0810
   27       0.0943        0.4854      -0.3910        -1.0113       1.1056
   28       0.5507        1.3710      -0.8203        -0.6387       1.1893
   29       1.6637        1.4486       0.2150        -0.0399       1.7036
   30      26.3653        0.0507      26.3146         0.7848      25.5805
   32      -0.2613        0.5111      -0.7724        -1.2090       0.9477
   41      -0.0765       -1.7241       1.6477        -0.9138       0.8374
 Sum       29.1367        3.3040      25.8327        -3.3083      32.4450

 Contributions to Isotropic shielding for atom   30 (    32.0775 ppm):
                         Standard Origin              Atomic Origin
 NLMO      Total    Paramagnetic  Diamagnetic   Paramagnetic  Diamagnetic
   18       0.0338       -0.2480       0.2818        -1.2460       1.2799
   23      -0.2453        0.0246      -0.2698        -1.3783       1.1331
   24      -0.1847        0.0956      -0.2803        -1.0766       0.8919
   33       1.9949       -1.0972       3.0921         1.4040       0.5909
   35       0.5636        1.3976      -0.8340        -0.2973       0.8609
   36      26.2270        0.3124      25.9146         0.4675      25.7595
   37       2.0488        1.2568       0.7920         0.2756       1.7732
   40       0.0976       -1.4905       1.5881        -1.0344       1.1320
 Sum       30.5358        0.2512      30.2846        -2.8855      33.4213

 Contributions to Isotropic shielding for atom   31 (    31.3140 ppm):
                         Standard Origin              Atomic Origin
 NLMO      Total    Paramagnetic  Diamagnetic   Paramagnetic  Diamagnetic
   18       0.0865       -0.2259       0.3124        -0.9263       1.0129
   33       1.4930       -0.2749       1.7680         0.6898       0.8032
   34      -0.1882        0.2836      -0.4717        -1.3327       1.1446
   35       0.3676        2.3834      -2.0158        -0.5033       0.8709
   36       2.0422        0.8502       1.1920         0.2134       1.8288
   37      26.1732       -0.0818      26.2550         0.4650      25.7082
   38       0.3429       -0.6920       1.0349        -0.1572       0.5001
   39       0.1031       -1.0991       1.2022        -0.9582       1.0613
 Sum       30.4205        1.1435      29.2770        -2.5096      32.9301

 Contributions to Isotropic shielding for atom   32 (    32.1862 ppm):
                         Standard Origin              Atomic Origin
 NLMO      Total    Paramagnetic  Diamagnetic   Paramagnetic  Diamagnetic
   31      -0.2573        0.3264      -0.5837        -1.1460       0.8888
   32       0.2884       -0.7715       1.0599         0.2447       0.0437
   35       1.3419        0.0764       1.2655         0.5691       0.7728
   37      -0.0138        1.0358      -1.0497        -1.1441       1.1302
   38       0.5786        1.8000      -1.2214        -0.1370       0.7156
   39      26.2719       -0.1519      26.4238         0.5021      25.7697
   40       2.0383        2.1057      -0.0674         0.2918       1.7465
   42       0.1162        0.0531       0.0631        -0.9466       1.0628
 Sum       30.3643        4.4741      25.8902        -1.7659      32.1302

 Contributions to Isotropic shielding for atom   33 (    32.1505 ppm):
                         Standard Origin              Atomic Origin
 NLMO      Total    Paramagnetic  Diamagnetic   Paramagnetic  Diamagnetic
   31      -0.3693        0.2867      -0.6560        -1.1017       0.7324
   32       0.3382       -0.8108       1.1490        -0.1140       0.4522
   35       1.6611       -1.6130       3.2741         0.8609       0.8002
   36      -0.0736        0.4423      -0.5159        -1.1587       1.0851
   38       1.1341        0.2392       0.8948         0.4168       0.7172
   39       1.8474        2.7694      -0.9220         0.0416       1.8057
   40      26.3765        0.2159      26.1606         0.4126      25.9640
 Sum       30.9144        1.5298      29.3846        -0.6424      31.5568

 Contributions to Isotropic shielding for atom   34 (    31.7943 ppm):
                         Standard Origin              Atomic Origin
 NLMO      Total    Paramagnetic  Diamagnetic   Paramagnetic  Diamagnetic
   28      -0.5042        1.2842      -1.7884        -1.6694       1.1652
   30      -0.0689        0.0353      -0.1042        -1.0081       0.9392
   32       1.3264       -0.7128       2.0392         0.4899       0.8365
   33      -0.1548        0.3146      -0.4695        -1.0535       0.8987
   40       0.1132        0.1306      -0.0175        -0.9245       1.0377
   41      26.4207        0.1812      26.2395         0.8466      25.5741
   42       1.6027        2.5575      -0.9548        -0.2200       1.8227
   67       1.1526       -0.1482       1.3009         1.1763      -0.0237
 Sum       29.8877        3.6425      26.2452        -2.3627      32.2504

 Contributions to Isotropic shielding for atom   35 (    31.4151 ppm):
                         Standard Origin              Atomic Origin
 NLMO      Total    Paramagnetic  Diamagnetic   Paramagnetic  Diamagnetic
   32       1.6301       -0.9440       2.5741         0.3785       1.2516
   33      -0.2240        0.4761      -0.7001        -1.1530       0.9290
   41       1.3269        2.6195      -1.2926        -0.5879       1.9148
   42      26.3775        0.2695      26.1080         0.7121      25.6654
 Sum       29.1105        2.4210      26.6894        -0.6503      29.7608

 Contributions to Isotropic shielding for atom   36 (    31.0762 ppm):
                         Standard Origin              Atomic Origin
 NLMO      Total    Paramagnetic  Diamagnetic   Paramagnetic  Diamagnetic
    2      -0.8311       -0.5208      -0.3103        -1.7463       0.9152
    4       1.8651       -0.6673       2.5324         0.9944       0.8707
    8       0.5773       -0.2226       0.8000        -0.5097       1.0870
   15      -0.2945        0.1775      -0.4720        -1.2118       0.9173
   18       0.0642        0.2803      -0.2161        -1.2265       1.2907
   43      25.7215        0.2485      25.4730         0.3424      25.3791
   44       1.7808        2.5168      -0.7360        -0.0947       1.8755
   45       2.2284        0.2263       2.0021         0.4240       1.8045
 Sum       31.1118        2.0387      29.0731        -3.0282      34.1400

 Contributions to Isotropic shielding for atom   37 (    30.9728 ppm):
                         Standard Origin              Atomic Origin
 NLMO      Total    Paramagnetic  Diamagnetic   Paramagnetic  Diamagnetic
    1      -0.9981        0.2039      -1.2020        -1.9111       0.9130
    2      -0.7446        0.0642      -0.8088        -2.3552       1.6106
    6      -0.0032       -1.5041       1.5009        -0.9392       0.9360
   18       0.0663        0.1454      -0.0791        -0.9448       1.0111
   43       2.1013        2.2623      -0.1610         0.1348       1.9665
   44      26.2691       -0.1619      26.4310         0.5288      25.7403
   45       2.0671        2.1920      -0.1248         0.0802       1.9869
 Sum       28.7579        3.2017      25.5562        -5.4066      34.1645

 Contributions to Isotropic shielding for atom   38 (    30.8398 ppm):
                         Standard Origin              Atomic Origin
 NLMO      Total    Paramagnetic  Diamagnetic   Paramagnetic  Diamagnetic
    2      -0.8065       -0.5304      -0.2761        -1.7063       0.8998
    4       1.8556       -0.7456       2.6012         0.9823       0.8733
    8       0.5728       -0.2246       0.7974        -0.5138       1.0866
   15      -0.3145        0.1635      -0.4780        -1.2261       0.9116
   17      -0.4150       -0.2358      -0.1792        -1.0031       0.5881
   18       0.1475        0.2483      -0.1008        -1.2011       1.3486
   43       2.2242        0.2321       1.9922         0.4022       1.8220
   44       1.7920        2.4652      -0.6732        -0.0927       1.8847
   45      25.6851        0.2568      25.4282         0.3455      25.3395
 Sum       30.7412        1.6296      29.1116        -4.0130      34.7542
 
 1\1\GINC-GNOSIE-MM\SP\RHF\STO-3G\C16H19N1O2\MBENIDD\30-Apr-2026\0\\# n
 mr=giao hf/sto-3g pop=nbo\\Title Card Required\\0,1\C,0,0.,0.,0.\C,0,1
 .4074,0.,0.\C,0,2.1276,1.1937,0.\C,0,1.4521,2.4086,-0.0115\C,0,0.0574,
 2.4314,-0.0314\C,0,-0.6774,1.2368,-0.0059\C,0,-2.156,1.3486,0.0513\O,0
 ,-0.501,3.6828,-0.0513\C,0,-1.832,3.6943,-0.5815\C,0,-2.7263,2.7446,0.
 1982\C,0,-2.3456,5.1387,-0.5105\C,0,-3.7986,5.233,-0.0476\N,0,-4.6049,
 4.2004,-0.6975\C,0,-4.1629,2.8251,-0.3477\C,0,-5.2034,2.2728,0.6413\C,
 0,-6.1536,3.4238,0.9126\C,0,-6.0227,4.2851,-0.3249\O,0,-2.8761,0.3539,
 0.04\C,0,-0.7071,-1.3281,0.0188\H,0,-2.6936,2.9872,1.2695\H,0,-1.7792,
 3.4002,-1.6409\H,0,-4.2285,2.2318,-1.2704\H,0,1.9563,-0.9406,0.0075\H,
 0,3.2146,1.1746,0.0071\H,0,2.0109,3.3411,-0.0157\H,0,-1.7188,5.7497,0.
 1509\H,0,-2.2516,5.587,-1.5085\H,0,-3.8449,5.1533,1.0461\H,0,-4.1771,6
 .2289,-0.3083\H,0,-4.7721,1.8959,1.5742\H,0,-5.7531,1.4481,0.1713\H,0,
 -7.1794,3.0816,1.0781\H,0,-5.8314,3.975,1.8038\H,0,-6.3734,5.3101,-0.1
 635\H,0,-6.6248,3.8625,-1.1387\H,0,-1.3039,-1.4327,0.9301\H,0,0.0045,-
 2.1613,0.0052\H,0,-1.3412,-1.4383,-0.8664\\Version=EM64L-G16RevB.01\St
 ate=1-A\HF=-811.0540264\RMSD=6.348e-09\Dipole=0.0049514,0.2401096,0.29
 58333\Quadrupole=1.9491308,-0.7943064,-1.1548244,-3.8279663,-1.9267973
 ,1.4136845\PG=C01 [X(C16H19N1O2)]\\@


 LAW OF COMPENSATION:
      NO CALCULATION IS EVER A COMPLETE FAILURE; IT 
      CAN ALWAYS SERVE AS A BAD EXAMPLE.

                                           -- ANON
 Job cpu time:       0 days  0 hours  3 minutes 37.1 seconds.
 Elapsed time:       0 days  0 hours  1 minutes 55.7 seconds.
 File lengths (MBytes):  RWF=     14 Int=      0 D2E=      0 Chk=      2 Scr=      1
 Normal termination of Gaussian 16 at Thu Apr 30 09:19:25 2026.
