 Entering Gaussian System, Link 0=g16
 Input=2_isoelaeocarpine_c_2.gjf
 Output=2_isoelaeocarpine_c_2.log
 Initial command:
 /opt/gaussian/g16/l1.exe "/home/mbenidd/Bureau/Elaeocarpines/HF_NMR/Isoelaeocarpine/2_isoelaeocarpine_c_2/Gau-12928.inp" -scrdir="/home/mbenidd/Bureau/Elaeocarpines/HF_NMR/Isoelaeocarpine/2_isoelaeocarpine_c_2/"
 Entering Link 1 = /opt/gaussian/g16/l1.exe PID=     12930.
  
 Copyright (c) 1988-2017, Gaussian, Inc.  All Rights Reserved.
  
 This is part of the Gaussian(R) 16 program.  It is based on
 the Gaussian(R) 09 system (copyright 2009, Gaussian, Inc.),
 the Gaussian(R) 03 system (copyright 2003, Gaussian, Inc.),
 the Gaussian(R) 98 system (copyright 1998, Gaussian, Inc.),
 the Gaussian(R) 94 system (copyright 1995, Gaussian, Inc.),
 the Gaussian 92(TM) system (copyright 1992, Gaussian, Inc.),
 the Gaussian 90(TM) system (copyright 1990, Gaussian, Inc.),
 the Gaussian 88(TM) system (copyright 1988, Gaussian, Inc.),
 the Gaussian 86(TM) system (copyright 1986, Carnegie Mellon
 University), and the Gaussian 82(TM) system (copyright 1983,
 Carnegie Mellon University). Gaussian is a federally registered
 trademark of Gaussian, Inc.
  
 This software contains proprietary and confidential information,
 including trade secrets, belonging to Gaussian, Inc.
  
 This software is provided under written license and may be
 used, copied, transmitted, or stored only in accord with that
 written license.
  
 The following legend is applicable only to US Government
 contracts under FAR:
  
                    RESTRICTED RIGHTS LEGEND
  
 Use, reproduction and disclosure by the US Government is
 subject to restrictions as set forth in subparagraphs (a)
 and (c) of the Commercial Computer Software - Restricted
 Rights clause in FAR 52.227-19.
  
 Gaussian, Inc.
 340 Quinnipiac St., Bldg. 40, Wallingford CT 06492
  
  
 ---------------------------------------------------------------
 Warning -- This program may not be used in any manner that
 competes with the business of Gaussian, Inc. or will provide
 assistance to any competitor of Gaussian, Inc.  The licensee
 of this program is prohibited from giving any competitor of
 Gaussian, Inc. access to this program.  By using this program,
 the user acknowledges that Gaussian, Inc. is engaged in the
 business of creating and licensing software in the field of
 computational chemistry and represents and warrants to the
 licensee that it is not a competitor of Gaussian, Inc. and that
 it will not use this program in any manner prohibited above.
 ---------------------------------------------------------------
  

 Cite this work as:
 Gaussian 16, Revision B.01,
 M. J. Frisch, G. W. Trucks, H. B. Schlegel, G. E. Scuseria, 
 M. A. Robb, J. R. Cheeseman, G. Scalmani, V. Barone, 
 G. A. Petersson, H. Nakatsuji, X. Li, M. Caricato, A. V. Marenich, 
 J. Bloino, B. G. Janesko, R. Gomperts, B. Mennucci, H. P. Hratchian, 
 J. V. Ortiz, A. F. Izmaylov, J. L. Sonnenberg, D. Williams-Young, 
 F. Ding, F. Lipparini, F. Egidi, J. Goings, B. Peng, A. Petrone, 
 T. Henderson, D. Ranasinghe, V. G. Zakrzewski, J. Gao, N. Rega, 
 G. Zheng, W. Liang, M. Hada, M. Ehara, K. Toyota, R. Fukuda, 
 J. Hasegawa, M. Ishida, T. Nakajima, Y. Honda, O. Kitao, H. Nakai, 
 T. Vreven, K. Throssell, J. A. Montgomery, Jr., J. E. Peralta, 
 F. Ogliaro, M. J. Bearpark, J. J. Heyd, E. N. Brothers, K. N. Kudin, 
 V. N. Staroverov, T. A. Keith, R. Kobayashi, J. Normand, 
 K. Raghavachari, A. P. Rendell, J. C. Burant, S. S. Iyengar, 
 J. Tomasi, M. Cossi, J. M. Millam, M. Klene, C. Adamo, R. Cammi, 
 J. W. Ochterski, R. L. Martin, K. Morokuma, O. Farkas, 
 J. B. Foresman, and D. J. Fox, Gaussian, Inc., Wallingford CT, 2016.
 
 ******************************************
 Gaussian 16:  EM64L-G16RevB.01 20-Dec-2017
                30-Apr-2026 
 ******************************************
 %nprocshared=4
 Will use up to    4 processors via shared memory.
 ----------------------------
 # nmr=giao hf/sto-3g pop=nbo
 ----------------------------
 1/38=1,172=1/1;
 2/12=2,17=6,18=5,40=1/2;
 3/6=3,11=9,25=1,30=1/1,2,3,8;
 4//1;
 5/5=2,38=5/2;
 8/6=1,10=90,11=11/1;
 10/13=100,45=16/2;
 6/7=2,8=2,9=2,10=2,28=1,40=1,64=1/1,7;
 99/9=1/99;
 -------------------
 Title Card Required
 -------------------
 Symbolic Z-matrix:
 Charge =  0 Multiplicity = 1
 C                     0.        0.        0. 
 C                     1.4072    0.        0. 
 C                     2.1264    1.194     0. 
 C                     1.4498    2.4083    0.0105 
 C                     0.0551    2.4306    0.0315 
 C                    -0.6775    1.2367    0.0091 
 C                    -2.1536    1.3462   -0.0381 
 O                    -0.5032    3.6802    0.0395 
 C                    -1.8428    3.7087    0.5452 
 C                    -2.7483    2.7264   -0.1849 
 C                    -2.3707    5.1326    0.3663 
 C                    -2.5528    5.4738   -1.1148 
 N                    -3.3409    4.5      -1.8641 
 C                    -2.92      3.1028   -1.667 
 C                    -4.068     2.3635   -2.3541 
 C                    -5.306     3.2099   -2.0817 
 C                    -4.7805    4.5623   -1.616 
 O                    -2.8799    0.3565    0.0199 
 C                    -0.7077   -1.3278   -0.0219 
 H                    -3.7191    2.7166    0.3293 
 H                    -1.8044    3.4821    1.6199 
 H                    -1.9912    2.911    -2.2184 
 H                     1.9563   -0.9404   -0.009 
 H                     3.2134    1.1758   -0.0093 
 H                     2.0082    3.3411    0.0094 
 H                    -3.3215    5.2453    0.9 
 H                    -1.6652    5.849     0.8042 
 H                    -2.9966    6.4722   -1.2118 
 H                    -1.565     5.5468   -1.5874 
 H                    -4.2       1.3314   -2.0189 
 H                    -3.8901    2.3323   -3.4372 
 H                    -5.9233    2.7512   -1.3013 
 H                    -5.9173    3.3003   -2.9859 
 H                    -5.0224    4.6994   -0.556 
 H                    -5.2425    5.3821   -2.1756 
 H                    -1.3242   -1.4489    0.8742 
 H                     0.0037   -2.1611   -0.0344 
 H                    -1.3229   -1.4206   -0.9224 
 
                          Input orientation:                          
 ---------------------------------------------------------------------
 Center     Atomic      Atomic             Coordinates (Angstroms)
 Number     Number       Type             X           Y           Z
 ---------------------------------------------------------------------
      1          6           0        0.000000    0.000000    0.000000
      2          6           0        1.407200    0.000000    0.000000
      3          6           0        2.126400    1.194000    0.000000
      4          6           0        1.449800    2.408300    0.010500
      5          6           0        0.055100    2.430600    0.031500
      6          6           0       -0.677500    1.236700    0.009100
      7          6           0       -2.153600    1.346200   -0.038100
      8          8           0       -0.503200    3.680200    0.039500
      9          6           0       -1.842800    3.708700    0.545200
     10          6           0       -2.748300    2.726400   -0.184900
     11          6           0       -2.370700    5.132600    0.366300
     12          6           0       -2.552800    5.473800   -1.114800
     13          7           0       -3.340900    4.500000   -1.864100
     14          6           0       -2.920000    3.102800   -1.667000
     15          6           0       -4.068000    2.363500   -2.354100
     16          6           0       -5.306000    3.209900   -2.081700
     17          6           0       -4.780500    4.562300   -1.616000
     18          8           0       -2.879900    0.356500    0.019900
     19          6           0       -0.707700   -1.327800   -0.021900
     20          1           0       -3.719100    2.716600    0.329300
     21          1           0       -1.804400    3.482100    1.619900
     22          1           0       -1.991200    2.911000   -2.218400
     23          1           0        1.956300   -0.940400   -0.009000
     24          1           0        3.213400    1.175800   -0.009300
     25          1           0        2.008200    3.341100    0.009400
     26          1           0       -3.321500    5.245300    0.900000
     27          1           0       -1.665200    5.849000    0.804200
     28          1           0       -2.996600    6.472200   -1.211800
     29          1           0       -1.565000    5.546800   -1.587400
     30          1           0       -4.200000    1.331400   -2.018900
     31          1           0       -3.890100    2.332300   -3.437200
     32          1           0       -5.923300    2.751200   -1.301300
     33          1           0       -5.917300    3.300300   -2.985900
     34          1           0       -5.022400    4.699400   -0.556000
     35          1           0       -5.242500    5.382100   -2.175600
     36          1           0       -1.324200   -1.448900    0.874200
     37          1           0        0.003700   -2.161100   -0.034400
     38          1           0       -1.322900   -1.420600   -0.922400
 ---------------------------------------------------------------------
                    Distance matrix (angstroms):
                    1          2          3          4          5
     1  C    0.000000
     2  C    1.407200   0.000000
     3  C    2.438691   1.393874   0.000000
     4  C    2.811039   2.408700   1.390116   0.000000
     5  C    2.431429   2.781543   2.412562   1.395036   0.000000
     6  C    1.410147   2.423940   2.804240   2.428591   1.400929
     7  C    2.540019   3.806968   4.282875   3.756981   2.461529
     8  O    3.714652   4.146693   3.619053   2.330832   1.368672
     9  C    4.177034   4.961270   4.730276   3.580246   2.345091
    10  C    3.875642   4.973492   5.113232   4.214666   2.827256
    11  C    5.665508   6.383595   5.989211   4.705808   3.646560
    12  C    6.141828   6.847398   6.438508   5.165694   4.168478
    13  N    5.906478   6.802156   6.655515   5.553390   4.405512
    14  C    4.575222   5.579509   5.646996   4.731965   3.491128
    15  C    5.260850   6.411375   6.729050   6.003287   4.763984
    16  C    6.541450   7.726836   7.977336   7.117633   5.815008
    17  C    6.802883   7.855805   7.852526   6.789835   5.535470
    18  O    2.901950   4.301943   5.075908   4.791271   3.593919
    19  C    1.504783   2.497265   3.793689   4.314429   3.835399
    20  H    4.617365   5.810964   6.049514   5.187891   3.796718
    21  H    4.243225   5.006343   4.828112   3.785899   2.662031
    22  H    4.166545   4.994431   4.982371   4.130519   3.078990
    23  H    2.170609   1.089011   2.141186   3.386844   3.870380
    24  H    3.421773   2.155215   1.087192   2.151681   3.398683
    25  H    3.898193   3.394737   2.150372   1.087165   2.155017
    26  H    6.273399   7.119254   6.848551   5.621840   4.480877
    27  H    6.134365   6.655613   6.057392   4.708673   3.904095
    28  H    7.234462   7.921571   7.454729   6.146525   5.214710
    29  H    5.977964   6.490054   5.923946   4.635999   3.867333
    30  H    4.846502   6.106494   6.642151   6.099051   4.849563
    31  H    5.690944   6.731668   7.021990   6.356646   5.254155
    32  H    6.659427   7.937173   8.301562   7.496733   6.133548
    33  H    7.404189   8.570641   8.834773   8.003014   6.747640
    34  H    6.900580   7.983311   7.981372   6.889081   5.592282
    35  H    7.822023   8.827160   8.750663   7.642604   6.453465
    36  H    2.148730   3.213111   4.433485   4.828980   4.202753
    37  H    2.161377   2.577081   3.970357   4.792978   4.592461
    38  H    2.149184   3.212845   4.425452   4.818573   4.200066
                    6          7          8          9         10
     6  C    0.000000
     7  C    1.480908   0.000000
     8  O    2.449897   2.859615   0.000000
     9  C    2.784980   2.453211   1.432157   0.000000
    10  C    2.558330   1.510023   2.449605   1.522462   0.000000
    11  C    4.262928   3.814118   2.388267   1.529109   2.497239
    12  C    4.767905   4.284358   2.958085   2.524931   2.907085
    13  N    4.609957   3.832807   3.514016   2.945367   2.513274
    14  C    3.364587   2.515219   3.014375   2.534029   1.538759
    15  C    4.283676   3.172331   4.491193   3.894486   2.564904
    16  C    5.448667   4.193722   5.271391   4.375290   3.220784
    17  C    5.525864   4.442260   4.670554   3.745597   3.090051
    18  O    2.371800   1.228976   4.086082   3.548064   2.382370
    19  C    2.564865   3.039928   5.012550   5.193880   4.541713
    20  H    3.397641   2.112763   3.369647   2.133396   1.098613
    21  H    2.984359   2.726348   2.056703   1.099001   2.172403
    22  H    3.080721   2.688621   2.811392   2.880249   2.177705
    23  H    3.417162   4.703261   5.234638   6.029463   5.967380
    24  H    3.891420   5.369782   4.481910   5.682272   6.162553
    25  H    3.411962   4.615459   2.534369   3.905434   4.799990
    26  H    4.883985   4.176961   3.336587   2.161846   2.801861
    27  H    4.783414   4.606866   2.576568   2.163217   3.449936
    28  H    5.854851   5.325795   3.946905   3.472065   3.891940
    29  H    4.681178   4.515730   2.694145   2.829093   3.364797
    30  H    4.065681   2.848077   4.839442   4.216937   2.723420
    31  H    4.837161   3.942297   5.037397   4.684594   3.469363
    32  H    5.615094   4.216674   5.660236   4.580049   3.365648
    33  H    6.378399   5.164636   6.213682   5.407126   4.268199
    34  H    5.584603   4.443218   4.670820   3.507704   3.033476
    35  H    6.541902   5.513501   5.501281   4.664867   4.151706
    36  H    2.894662   3.054960   5.261030   5.194037   4.536836
    37  H    3.465685   4.117658   5.863718   6.180619   5.611044
    38  H    2.888854   3.021131   5.255028   5.360398   4.446716
                   11         12         13         14         15
    11  C    0.000000
    12  C    1.530763   0.000000
    13  N    2.513196   1.459739   0.000000
    14  C    2.925086   2.461991   1.472472   0.000000
    15  C    4.236664   3.675005   2.309417   1.528586   0.000000
    16  C    4.278489   3.693271   2.360789   2.424137   1.524217
    17  C    3.172048   2.458593   1.462150   2.365206   2.426349
    18  O    4.815642   5.251790   4.574994   3.223260   3.327988
    19  C    6.682293   7.131661   6.655126   5.218318   5.509670
    20  H    2.767058   3.323828   2.852114   2.184702   2.728928
    21  H    2.148571   3.464903   3.941473   3.491725   4.708272
    22  H    3.429315   2.846273   2.114743   1.097041   2.152038
    23  H    7.466265   7.918127   7.816628   6.547880   7.259989
    24  H    6.854160   7.276263   7.579541   6.639269   7.741286
    25  H    4.744641   5.158968   5.784974   5.210975   6.592575
    26  H    1.096156   2.168532   2.862883   3.367640   4.410351
    27  H    1.096684   2.147363   3.427477   3.901662   5.281763
    28  H    2.162563   1.096891   2.105614   3.400872   4.397063
    29  H    2.153522   1.097465   2.079946   2.795621   4.121436
    30  H    4.846095   4.548642   3.286646   2.213615   1.093167
    31  H    4.961539   4.129278   2.734079   2.160642   1.098056
    32  H    4.590525   4.336773   3.169201   3.045845   2.168141
    33  H    5.212767   4.420970   3.055414   3.280596   2.167182
    34  H    2.840742   2.647806   2.139703   2.864182   3.098463
    35  H    3.843272   2.892783   2.119249   3.293613   3.243957
    36  H    6.683507   7.306802   6.852356   5.451811   5.699540
    37  H    7.680911   8.123709   7.674920   6.238754   6.513966
    38  H    6.760404   7.005885   6.325554   4.854514   4.889249
                   16         17         18         19         20
    16  C    0.000000
    17  C    1.523815   0.000000
    18  O    4.294715   4.896652   0.000000
    19  C    6.780698   7.336357   2.749012   0.000000
    20  H    2.928228   2.883985   2.523897   5.054606   0.000000
    21  H    5.102660   4.527146   3.672339   5.199365   2.432635
    22  H    3.331055   3.296949   3.510733   4.943623   3.084511
    23  H    8.617545   8.845713   5.007156   2.692051   6.760049
    24  H    9.000699   8.829060   6.148204   4.652225   7.109731
    25  H    7.608379   7.086586   5.727257   5.401455   5.770121
    26  H    4.119664   2.987545   4.986978   7.133547   2.622615
    27  H    5.343098   4.149465   5.679628   7.287366   3.775707
    28  H    4.090557   2.644503   6.239591   8.215530   4.123291
    29  H    4.438526   3.362960   5.590312   7.102526   4.040287
    30  H    2.180812   3.307268   2.617212   4.822397   2.768409
    31  H    2.147635   3.013716   4.108020   5.931971   3.789914
    32  H    1.095668   2.164512   4.091753   6.743707   2.741998
    33  H    1.095188   2.182105   5.189084   7.572618   4.020366
    34  H    2.151000   1.095861   4.876756   7.431624   2.532557
    35  H    2.175156   1.094837   5.971495   8.380071   3.962343
    36  H    6.804153   7.367607   2.531699   1.094410   4.835685
    37  H    7.825087   8.402032   3.828369   1.095735   6.146826
    38  H    6.216960   6.944867   2.543671   1.094524   4.942161
                   21         22         23         24         25
    21  H    0.000000
    22  H    3.885048   0.000000
    23  H    6.029485   5.941169   0.000000
    24  H    5.757745   5.914296   2.461423   0.000000
    25  H    4.141197   4.598182   4.281854   2.478181   0.000000
    26  H    2.434897   4.116196   8.181952   7.751940   5.729297
    27  H    2.507381   4.227793   7.737733   6.804507   4.518311
    28  H    4.287256   3.834869   8.995809   8.249967   6.028527
    29  H    3.821920   2.743583   7.548156   6.665519   4.492509
    30  H    4.858526   2.722817   6.863002   7.682526   6.833348
    31  H    5.589852   2.329418   7.526189   7.971681   6.905554
    32  H    5.102251   4.040794   8.796934   9.361113   8.060683
    33  H    6.177572   4.019312   9.425447   9.835819   8.472723
    34  H    4.070858   3.892316   8.989372   8.974577   7.182896
    35  H    5.462266   4.084008   9.822977   9.689585   7.842994
    36  H    5.010132   5.386816   3.435156   5.315961   5.898887
    37  H    6.152369   5.871599   2.302911   4.630087   5.856120
    38  H    5.543609   4.570448   3.437738   5.305946   5.885428
                   26         27         28         29         30
    26  H    0.000000
    27  H    1.765492   0.000000
    28  H    2.463847   2.495047   0.000000
    29  H    3.059960   2.412699   1.745543   0.000000
    30  H    4.960882   5.899476   5.341105   4.989891   0.000000
    31  H    5.255490   5.941955   4.784299   4.377312   1.763353
    32  H    4.223224   5.671059   4.734915   5.185751   2.345324
    33  H    5.061761   6.240279   4.662496   5.093631   2.785817
    34  H    2.304561   3.800331   2.770697   3.706142   3.762957
    35  H    3.628811   4.679132   2.676060   3.727883   4.185634
    36  H    6.985856   7.306198   8.360152   7.420059   4.936631
    37  H    8.172198   8.224973   9.215310   8.017752   5.814369
    38  H    7.193731   7.479666   8.073495   7.003249   4.129591
                   31         32         33         34         35
    31  H    0.000000
    32  H    2.978498   0.000000
    33  H    2.291339   1.771842   0.000000
    34  H    3.896996   2.272130   2.943253   0.000000
    35  H    3.566777   2.854737   2.333631   1.771335   0.000000
    36  H    6.282475   6.597375   7.651917   7.315993   8.444934
    37  H    6.850647   7.801606   8.578839   8.520576   9.434364
    38  H    5.196056   6.221829   6.903147   7.160653   7.950503
                   36         37         38
    36  H    0.000000
    37  H    1.759574   0.000000
    38  H    1.796823   1.759759   0.000000
 Stoichiometry    C16H19NO2
 Framework group  C1[X(C16H19NO2)]
 Deg. of freedom   108
 Full point group                 C1      NOp   1
 Largest Abelian subgroup         C1      NOp   1
 Largest concise Abelian subgroup C1      NOp   1
                         Standard orientation:                         
 ---------------------------------------------------------------------
 Center     Atomic      Atomic             Coordinates (Angstroms)
 Number     Number       Type             X           Y           Z
 ---------------------------------------------------------------------
      1          6           0       -2.961696    0.840087   -0.015563
      2          6           0       -4.025824    0.038362   -0.468421
      3          6           0       -3.846437   -1.321245   -0.717765
      4          6           0       -2.601845   -1.903937   -0.508284
      5          6           0       -1.538858   -1.131406   -0.039903
      6          6           0       -1.702508    0.240377    0.192547
      7          6           0       -0.508270    1.003983    0.621253
      8          8           0       -0.361724   -1.809063    0.128612
      9          6           0        0.543401   -1.172834    1.038026
     10          6           0        0.813809    0.275098    0.652978
     11          6           0        1.849380   -1.967920    1.017210
     12          6           0        2.560294   -1.830101   -0.331435
     13          7           0        2.751823   -0.451857   -0.772568
     14          6           0        1.538427    0.379195   -0.700488
     15          6           0        2.128766    1.763105   -0.970431
     16          6           0        3.510227    1.738912   -0.326832
     17          6           0        3.816791    0.267591   -0.075345
     18          8           0       -0.572890    2.193146    0.924729
     19          6           0       -3.225408    2.304101    0.211354
     20          1           0        1.414743    0.729926    1.452328
     21          1           0        0.111144   -1.236122    2.046466
     22          1           0        0.856343    0.116347   -1.518517
     23          1           0       -5.008461    0.475491   -0.639555
     24          1           0       -4.677152   -1.924146   -1.076109
     25          1           0       -2.458806   -2.963914   -0.703007
     26          1           0        2.504567   -1.625961    1.826748
     27          1           0        1.641459   -3.030104    1.193985
     28          1           0        3.524667   -2.351499   -0.295405
     29          1           0        1.974491   -2.353472   -1.097821
     30          1           0        1.520453    2.590230   -0.595154
     31          1           0        2.243377    1.909979   -2.052567
     32          1           0        3.506052    2.294542    0.617491
     33          1           0        4.251017    2.201781   -0.987453
     34          1           0        3.820441    0.077698    1.003933
     35          1           0        4.801224   -0.005937   -0.468717
     36          1           0       -3.054324    2.566841    1.259891
     37          1           0       -4.265036    2.564284   -0.016930
     38          1           0       -2.593555    2.914169   -0.441763
 ---------------------------------------------------------------------
 Rotational constants (GHZ):           0.7503353           0.2959847           0.2351572
 Standard basis: STO-3G (5D, 7F)
 There are   114 symmetry adapted cartesian basis functions of A   symmetry.
 There are   114 symmetry adapted basis functions of A   symmetry.
   114 basis functions,   342 primitive gaussians,   114 cartesian basis functions
    69 alpha electrons       69 beta electrons
       nuclear repulsion energy      1509.4372207780 Hartrees.
 NAtoms=   38 NActive=   38 NUniq=   38 SFac= 1.00D+00 NAtFMM=   60 NAOKFM=F Big=F
 Integral buffers will be    131072 words long.
 Raffenetti 1 integral format.
 Two-electron integral symmetry is turned on.
 One-electron integrals computed using PRISM.
 NBasis=   114 RedAO= T EigKep=  1.74D-01  NBF=   114
 NBsUse=   114 1.00D-06 EigRej= -1.00D+00 NBFU=   114
 ExpMin= 1.69D-01 ExpMax= 1.31D+02 ExpMxC= 1.31D+02 IAcc=3 IRadAn=         5 AccDes= 0.00D+00
 Harris functional with IExCor=  205 and IRadAn=       5 diagonalized for initial guess.
 HarFok:  IExCor=  205 AccDes= 0.00D+00 IRadAn=         5 IDoV= 1 UseB2=F ITyADJ=14
 ICtDFT=  3500011 ScaDFX=  1.000000  1.000000  1.000000  1.000000
 FoFCou: FMM=F IPFlag=           0 FMFlag=      100000 FMFlg1=           0
         NFxFlg=           0 DoJE=T BraDBF=F KetDBF=T FulRan=T
         wScrn=  0.000000 ICntrl=       500 IOpCl=  0 I1Cent=   200000004 NGrid=           0
         NMat0=    1 NMatS0=      1 NMatT0=    0 NMatD0=    1 NMtDS0=    0 NMtDT0=    0
 Petite list used in FoFCou.
 Requested convergence on RMS density matrix=1.00D-08 within 128 cycles.
 Requested convergence on MAX density matrix=1.00D-06.
 Requested convergence on             energy=1.00D-06.
 No special actions if energy rises.
 Integral accuracy reduced to 1.0D-05 until final iterations.
 Initial convergence to 1.0D-05 achieved.  Increase integral accuracy.
 SCF Done:  E(RHF) =  -811.061719278     A.U. after   17 cycles
            NFock= 17  Conv=0.75D-08     -V/T= 2.0093
 Range of M.O.s used for correlation:     1   114
 NBasis=   114 NAE=    69 NBE=    69 NFC=     0 NFV=     0
 NROrb=    114 NOA=    69 NOB=    69 NVA=    45 NVB=    45
          Differentiating once with respect to magnetic field using GIAOs.
          Electric field/nuclear overlap derivatives assumed to be zero.
 FoFCou: FMM=F IPFlag=           0 FMFlag=      100000 FMFlg1=           0
         NFxFlg=           0 DoJE=F BraDBF=F KetDBF=T FulRan=T
         wScrn=  0.000000 ICntrl=      6100 IOpCl=  0 I1Cent=           7 NGrid=          38
         NMat0=    1 NMatS0=      1 NMatT0=    0 NMatD0=    1 NMtDS0=    0 NMtDT0=    0
 Symmetry not used in FoFCou.
 FoFJK:  IHMeth= 1 ICntrl=    6127 DoSepK=F KAlg= 0 I1Cent=           0 FoldK=F
 IRaf=         1 NMat=       1 IRICut=       1 DoRegI=T DoRafI=F ISym2E= 0 IDoP0=0 IntGTp=1.
          There are     3 degrees of freedom in the 1st order CPHF.  IDoFFX=0 NUNeed=     3.
      3 vectors produced by pass  0 Test12= 1.04D-13 3.33D-08 XBig12= 2.48D+01 1.48D+00.
 AX will form     3 AO Fock derivatives at one time.
      3 vectors produced by pass  1 Test12= 1.04D-13 3.33D-08 XBig12= 1.52D-01 2.21D-01.
      3 vectors produced by pass  2 Test12= 1.04D-13 3.33D-08 XBig12= 3.74D-03 2.37D-02.
      3 vectors produced by pass  3 Test12= 1.04D-13 3.33D-08 XBig12= 1.20D-04 2.61D-03.
      3 vectors produced by pass  4 Test12= 1.04D-13 3.33D-08 XBig12= 1.51D-06 1.52D-04.
      3 vectors produced by pass  5 Test12= 1.04D-13 3.33D-08 XBig12= 1.74D-08 2.24D-05.
      3 vectors produced by pass  6 Test12= 1.04D-13 3.33D-08 XBig12= 3.37D-10 2.76D-06.
      3 vectors produced by pass  7 Test12= 1.04D-13 3.33D-08 XBig12= 5.15D-12 3.02D-07.
      1 vectors produced by pass  8 Test12= 1.04D-13 3.33D-08 XBig12= 8.52D-14 3.65D-08.
 InvSVY:  IOpt=1 It=  1 EMax= 4.44D-16
 Solved reduced A of dimension    25 with     3 vectors.
 Calculating GIAO nuclear magnetic shielding tensors.
 SCF GIAO Magnetic shielding tensor (ppm):
      1  C    Isotropic =   113.7729   Anisotropy =   169.6930
   XX=    86.1861   YX=    21.4290   ZX=   -33.6164
   XY=    25.6831   YY=    42.9599   ZY=   -30.6433
   XZ=   -32.1291   YZ=   -29.5931   ZZ=   212.1728
   Eigenvalues:    31.2650    83.1522   226.9016
      2  C    Isotropic =   123.8207   Anisotropy =   142.9238
   XX=    58.3430   YX=    38.1006   ZX=   -35.1119
   XY=    34.0928   YY=   106.8039   ZY=   -15.0539
   XZ=   -37.9491   YZ=   -11.7860   ZZ=   206.3151
   Eigenvalues:    34.9534   117.4054   219.1033
      3  C    Isotropic =   117.2240   Anisotropy =   168.5341
   XX=    64.2111   YX=   -27.7950   ZX=   -50.5806
   XY=   -29.2330   YY=    81.0929   ZY=   -40.7092
   XZ=   -52.8579   YZ=   -40.6963   ZZ=   206.3680
   Eigenvalues:    19.7184   102.3735   229.5801
      4  C    Isotropic =   131.5546   Anisotropy =   145.3506
   XX=   124.6281   YX=    12.8632   ZX=   -26.6034
   XY=    11.3118   YY=    56.4649   ZY=   -35.4591
   XZ=   -28.6159   YZ=   -29.8500   ZZ=   213.5709
   Eigenvalues:    49.3553   116.8536   228.4550
      5  C    Isotropic =   105.2258   Anisotropy =   132.3272
   XX=    63.5813   YX=    22.3529   ZX=   -33.8086
   XY=    12.6227   YY=    71.5917   ZY=   -21.8744
   XZ=   -32.1546   YZ=   -15.9448   ZZ=   180.5045
   Eigenvalues:    47.6798    74.5537   193.4440
      6  C    Isotropic =   131.7881   Anisotropy =   149.7747
   XX=    87.5242   YX=   -10.4063   ZX=   -39.1270
   XY=   -11.8130   YY=    92.3508   ZY=   -31.0112
   XZ=   -33.1705   YZ=   -37.1809   ZZ=   215.4891
   Eigenvalues:    62.4870   101.2394   231.6378
      7  C    Isotropic =    89.8460   Anisotropy =   141.4612
   XX=   -37.5439   YX=    -1.1028   ZX=   -41.7536
   XY=    -2.2578   YY=   135.9553   ZY=   -14.1383
   XZ=   -44.9472   YZ=   -16.1331   ZZ=   171.1267
   Eigenvalues:   -46.3085   131.6931   184.1535
      8  O    Isotropic =   341.6167   Anisotropy =    90.7527
   XX=   317.7231   YX=   -37.7969   ZX=   -51.5353
   XY=   -46.5495   YY=   326.7347   ZY=   -38.2726
   XZ=   -33.4585   YZ=     4.2297   ZZ=   380.3924
   Eigenvalues:   263.6489   359.0828   402.1186
      9  C    Isotropic =   187.7111   Anisotropy =    46.4679
   XX=   194.8689   YX=     8.1669   ZX=    22.7068
   XY=    11.1567   YY=   180.2386   ZY=    10.4936
   XZ=    20.7707   YZ=    10.5404   ZZ=   188.0259
   Eigenvalues:   169.0027   175.4410   218.6897
     10  C    Isotropic =   213.0508   Anisotropy =     8.6822
   XX=   216.3179   YX=    -2.9092   ZX=    -1.1739
   XY=    -1.8520   YY=   206.4214   ZY=    -4.6733
   XZ=     2.4529   YZ=    -3.7146   ZZ=   216.4132
   Eigenvalues:   204.5441   215.7695   218.8389
     11  C    Isotropic =   222.2069   Anisotropy =    14.1638
   XX=   228.1639   YX=    -5.0138   ZX=     0.6874
   XY=    -6.1637   YY=   222.3475   ZY=    -1.3001
   XZ=    -1.5803   YZ=     4.4654   ZZ=   216.1095
   Eigenvalues:   215.6394   219.3319   231.6495
     12  C    Isotropic =   205.6597   Anisotropy =    34.9520
   XX=   192.9428   YX=     2.4008   ZX=    -6.0846
   XY=     4.1431   YY=   227.2194   ZY=    -4.2801
   XZ=    -5.5554   YZ=    -8.0892   ZZ=   196.8168
   Eigenvalues:   188.7191   199.2989   228.9610
     13  N    Isotropic =   299.0993   Anisotropy =    53.5825
   XX=   327.1533   YX=    -3.7742   ZX=    24.8463
   XY=    -1.6952   YY=   324.7934   ZY=    -2.4609
   XZ=    27.4519   YZ=    17.8569   ZZ=   245.3512
   Eigenvalues:   236.9494   325.5275   334.8209
     14  C    Isotropic =   196.1408   Anisotropy =    34.8416
   XX=   208.7807   YX=   -11.9922   ZX=     4.4375
   XY=   -13.6849   YY=   203.7122   ZY=    -4.3148
   XZ=    -7.3375   YZ=    -3.1165   ZZ=   175.9294
   Eigenvalues:   175.0989   193.9549   219.3685
     15  C    Isotropic =   214.4027   Anisotropy =    26.6806
   XX=   221.9610   YX=     9.3884   ZX=     5.6826
   XY=     7.6122   YY=   224.9576   ZY=    -6.6084
   XZ=     8.3004   YZ=    -9.5872   ZZ=   196.2893
   Eigenvalues:   191.4471   219.5711   232.1897
     16  C    Isotropic =   216.2586   Anisotropy =    21.4022
   XX=   223.7211   YX=    -0.9338   ZX=    11.3011
   XY=    -1.2162   YY=   227.9801   ZY=    -4.0505
   XZ=    11.9584   YZ=    -3.6376   ZZ=   197.0747
   Eigenvalues:   192.4197   225.8294   230.5267
     17  C    Isotropic =   200.7705   Anisotropy =    46.8350
   XX=   210.2063   YX=    14.1055   ZX=    13.7038
   XY=    17.1112   YY=   212.5170   ZY=     6.7867
   XZ=    20.2591   YZ=     4.9338   ZZ=   179.5882
   Eigenvalues:   172.0053   198.3123   231.9938
     18  O    Isotropic =  -359.3029   Anisotropy =  1275.0940
   XX=  -365.3272   YX=    43.6240   ZX=  -142.3764
   XY=    65.1311   YY= -1051.3895   ZY=  -396.4995
   XZ=  -147.0564   YZ=  -470.9279   ZZ=   338.8080
   Eigenvalues: -1175.7955  -392.8729   490.7597
     19  C    Isotropic =   218.0844   Anisotropy =    23.5104
   XX=   215.2775   YX=    -3.1321   ZX=     1.4862
   XY=    -3.5856   YY=   232.4204   ZY=     4.6765
   XZ=     1.5928   YZ=     4.7570   ZZ=   206.5553
   Eigenvalues:   205.2663   215.2289   233.7580
     20  H    Isotropic =    31.1291   Anisotropy =     9.3306
   XX=    30.0086   YX=     2.5604   ZX=     0.8425
   XY=     2.4211   YY=    30.2918   ZY=     3.8118
   XZ=     3.0378   YZ=     4.5248   ZZ=    33.0869
   Eigenvalues:    26.9154    29.1224    37.3495
     21  H    Isotropic =    31.3190   Anisotropy =    11.0068
   XX=    29.5996   YX=     0.3630   ZX=    -3.5039
   XY=    -0.3933   YY=    26.8838   ZY=    -0.9077
   XZ=    -1.5377   YZ=    -3.8643   ZZ=    37.4734
   Eigenvalues:    26.2658    29.0342    38.6568
     22  H    Isotropic =    31.8787   Anisotropy =     9.4467
   XX=    34.4312   YX=     2.2574   ZX=     6.0409
   XY=     3.3795   YY=    27.1213   ZY=    -1.7369
   XZ=     1.2662   YZ=     0.5852   ZZ=    34.0838
   Eigenvalues:    25.7495    31.7102    38.1765
     23  H    Isotropic =    25.8975   Anisotropy =     5.9444
   XX=    27.5181   YX=     1.0367   ZX=     1.8561
   XY=     1.0683   YY=    28.3174   ZY=     1.8342
   XZ=     1.6689   YZ=     1.9283   ZZ=    21.8571
   Eigenvalues:    21.0215    26.8105    29.8605
     24  H    Isotropic =    25.2806   Anisotropy =     3.7307
   XX=    27.1008   YX=    -0.5600   ZX=     1.3832
   XY=    -0.9298   YY=    26.8620   ZY=     0.9047
   XZ=     1.1967   YZ=     0.9775   ZZ=    21.8790
   Eigenvalues:    21.3616    26.7125    27.7677
     25  H    Isotropic =    25.7115   Anisotropy =     7.4051
   XX=    28.9601   YX=     1.4663   ZX=     2.6574
   XY=     1.1398   YY=    27.0876   ZY=     1.7376
   XZ=     2.3779   YZ=     2.0790   ZZ=    21.0867
   Eigenvalues:    20.0311    26.4552    30.6482
     26  H    Isotropic =    32.2407   Anisotropy =    12.5762
   XX=    32.6841   YX=     0.4035   ZX=     5.7738
   XY=     0.7708   YY=    28.1775   ZY=    -0.7341
   XZ=     6.4887   YZ=    -1.3977   ZZ=    35.8606
   Eigenvalues:    26.9274    29.1699    40.6249
     27  H    Isotropic =    31.7333   Anisotropy =    15.4617
   XX=    28.1500   YX=     0.1177   ZX=    -0.6515
   XY=     0.1772   YY=    40.5684   ZY=    -4.8955
   XZ=    -0.0427   YZ=    -4.6631   ZZ=    26.4814
   Eigenvalues:    24.9866    28.1721    42.0410
     28  H    Isotropic =    31.6345   Anisotropy =    15.0829
   XX=    35.4208   YX=    -6.5058   ZX=    -2.4192
   XY=    -6.7649   YY=    34.2361   ZY=     0.7088
   XZ=    -1.8653   YZ=    -0.0423   ZZ=    25.2466
   Eigenvalues:    24.6443    28.5695    41.6898
     29  H    Isotropic =    31.1574   Anisotropy =    12.9555
   XX=    28.5823   YX=     2.2257   ZX=     1.8187
   XY=     2.7868   YY=    33.1260   ZY=     6.9600
   XZ=     0.5128   YZ=     6.4201   ZZ=    31.7640
   Eigenvalues:    25.4657    28.2122    39.7944
     30  H    Isotropic =    32.4289   Anisotropy =    13.3624
   XX=    32.8614   YX=    -5.3287   ZX=    -0.8790
   XY=    -3.7736   YY=    38.7715   ZY=     0.6121
   XZ=    -3.6058   YZ=    -0.3067   ZZ=    25.6540
   Eigenvalues:    24.9082    31.0414    41.3372
     31  H    Isotropic =    31.8162   Anisotropy =    15.2088
   XX=    27.6202   YX=     1.1026   ZX=     0.3052
   XY=     1.8279   YY=    28.9858   ZY=    -6.3933
   XZ=    -0.9491   YZ=    -6.1602   ZZ=    38.8426
   Eigenvalues:    25.3181    28.1751    41.9554
     32  H    Isotropic =    31.9500   Anisotropy =    13.3144
   XX=    28.6240   YX=     1.9834   ZX=     2.5145
   XY=     2.3010   YY=    34.1630   ZY=     6.3266
   XZ=     2.1749   YZ=     6.4113   ZZ=    33.0631
   Eigenvalues:    27.1138    27.9100    40.8263
     33  H    Isotropic =    31.8239   Anisotropy =    16.2521
   XX=    35.4817   YX=     5.7042   ZX=    -4.5081
   XY=     6.1589   YY=    31.7777   ZY=    -4.7349
   XZ=    -4.6755   YZ=    -4.2650   ZZ=    28.2124
   Eigenvalues:    25.1081    27.7050    42.6586
     34  H    Isotropic =    32.0285   Anisotropy =     8.7584
   XX=    30.9488   YX=     1.5324   ZX=     4.2141
   XY=     1.6734   YY=    29.9323   ZY=    -1.7349
   XZ=     4.0896   YZ=    -2.4664   ZZ=    35.2045
   Eigenvalues:    26.5647    31.6534    37.8674
     35  H    Isotropic =    31.5099   Anisotropy =    15.1977
   XX=    40.8794   YX=    -2.3150   ZX=    -3.3877
   XY=    -1.5274   YY=    28.9714   ZY=     0.1755
   XZ=    -2.1763   YZ=     0.4062   ZZ=    24.6791
   Eigenvalues:    24.2144    28.6737    41.6417
     36  H    Isotropic =    30.8589   Anisotropy =    11.0927
   XX=    28.6708   YX=    -1.2832   ZX=     1.8978
   XY=    -0.5082   YY=    30.1616   ZY=     4.4926
   XZ=     0.8814   YZ=     7.5150   ZZ=    33.7444
   Eigenvalues:    25.0252    29.2975    38.2541
     37  H    Isotropic =    30.9955   Anisotropy =    12.2772
   XX=    37.2403   YX=    -3.1073   ZX=     2.7790
   XY=    -3.8816   YY=    31.1054   ZY=     0.5314
   XZ=     2.7189   YZ=     0.6657   ZZ=    24.6407
   Eigenvalues:    23.8080    29.9982    39.1803
     38  H    Isotropic =    31.1517   Anisotropy =    10.3203
   XX=    31.5961   YX=     3.2133   ZX=    -2.5129
   XY=     1.6945   YY=    34.7489   ZY=    -2.7741
   XZ=    -1.0287   YZ=    -5.7736   ZZ=    27.1102
   Eigenvalues:    25.1316    30.2916    38.0319
 End of Minotr F.D. properties file   721 does not exist.
 End of Minotr F.D. properties file   722 does not exist.
 End of Minotr F.D. properties file   788 does not exist.

 **********************************************************************

            Population analysis using the SCF Density.

 **********************************************************************

 Orbital symmetries:
       Occupied  (A) (A) (A) (A) (A) (A) (A) (A) (A) (A) (A) (A)
                 (A) (A) (A) (A) (A) (A) (A) (A) (A) (A) (A) (A)
                 (A) (A) (A) (A) (A) (A) (A) (A) (A) (A) (A) (A)
                 (A) (A) (A) (A) (A) (A) (A) (A) (A) (A) (A) (A)
                 (A) (A) (A) (A) (A) (A) (A) (A) (A) (A) (A) (A)
                 (A) (A) (A) (A) (A) (A) (A) (A) (A)
       Virtual   (A) (A) (A) (A) (A) (A) (A) (A) (A) (A) (A) (A)
                 (A) (A) (A) (A) (A) (A) (A) (A) (A) (A) (A) (A)
                 (A) (A) (A) (A) (A) (A) (A) (A) (A) (A) (A) (A)
                 (A) (A) (A) (A) (A) (A) (A) (A) (A)
 The electronic state is 1-A.
 Alpha  occ. eigenvalues --  -20.30052 -20.26243 -15.31337 -11.11502 -11.11375
 Alpha  occ. eigenvalues --  -11.09907 -11.08240 -11.07256 -11.06858 -11.06129
 Alpha  occ. eigenvalues --  -11.05309 -11.05230 -11.04383 -11.04127 -11.04080
 Alpha  occ. eigenvalues --  -11.04049 -11.02963 -11.02290 -11.01955  -1.34719
 Alpha  occ. eigenvalues --   -1.31560  -1.19849  -1.09897  -1.04770  -1.03154
 Alpha  occ. eigenvalues --   -0.99102  -0.97966  -0.95142  -0.92167  -0.88529
 Alpha  occ. eigenvalues --   -0.83932  -0.80526  -0.78042  -0.75512  -0.74435
 Alpha  occ. eigenvalues --   -0.71735  -0.69103  -0.64757  -0.63967  -0.62717
 Alpha  occ. eigenvalues --   -0.61537  -0.61151  -0.58570  -0.57428  -0.55394
 Alpha  occ. eigenvalues --   -0.54541  -0.54209  -0.54069  -0.52796  -0.51644
 Alpha  occ. eigenvalues --   -0.50287  -0.50117  -0.49381  -0.47991  -0.47041
 Alpha  occ. eigenvalues --   -0.45667  -0.45269  -0.44578  -0.44066  -0.43442
 Alpha  occ. eigenvalues --   -0.42921  -0.42650  -0.40583  -0.39351  -0.37007
 Alpha  occ. eigenvalues --   -0.31654  -0.27675  -0.27083  -0.24589
 Alpha virt. eigenvalues --    0.21121   0.26817   0.34483   0.49319   0.50774
 Alpha virt. eigenvalues --    0.53465   0.55614   0.56977   0.58643   0.58706
 Alpha virt. eigenvalues --    0.60518   0.61058   0.62903   0.63465   0.65000
 Alpha virt. eigenvalues --    0.66106   0.66333   0.67485   0.68348   0.69189
 Alpha virt. eigenvalues --    0.69821   0.71783   0.72123   0.73577   0.73597
 Alpha virt. eigenvalues --    0.74294   0.75002   0.75849   0.75898   0.77103
 Alpha virt. eigenvalues --    0.77746   0.78589   0.79662   0.80618   0.81771
 Alpha virt. eigenvalues --    0.83029   0.83903   0.86118   0.86806   0.87616
 Alpha virt. eigenvalues --    0.90606   0.93455   1.00629   1.11892   1.13514
          Condensed to atoms (all electrons):
               1          2          3          4          5          6
     1  C    4.757616   0.505720  -0.028745  -0.010058  -0.027873   0.496752
     2  C    0.505720   4.807401   0.503972  -0.031543  -0.011308  -0.031201
     3  C   -0.028745   0.503972   4.758418   0.509286  -0.029206  -0.009540
     4  C   -0.010058  -0.031543   0.509286   4.806791   0.499041  -0.032027
     5  C   -0.027873  -0.011308  -0.029206   0.499041   4.751284   0.489787
     6  C    0.496752  -0.031201  -0.009540  -0.032027   0.489787   4.872688
     7  C   -0.023439   0.000768   0.000019   0.000806  -0.029949   0.390009
     8  O    0.000245   0.000008   0.000351  -0.027261   0.294654  -0.016866
     9  C    0.000028   0.000000  -0.000020   0.001698  -0.039921  -0.007361
    10  C    0.000618  -0.000007  -0.000000  -0.000033  -0.004659  -0.034438
    11  C    0.000000   0.000000   0.000000  -0.000014   0.001584  -0.000003
    12  C    0.000000  -0.000000   0.000000  -0.000000   0.000011  -0.000001
    13  N    0.000000  -0.000000  -0.000000  -0.000000  -0.000000  -0.000004
    14  C   -0.000006   0.000000   0.000000  -0.000002  -0.000060  -0.000142
    15  C    0.000000  -0.000000  -0.000000   0.000000  -0.000001   0.000011
    16  C    0.000000  -0.000000   0.000000  -0.000000  -0.000000  -0.000000
    17  C    0.000000   0.000000   0.000000   0.000000   0.000000  -0.000000
    18  O   -0.001024  -0.000004  -0.000000  -0.000002   0.000326  -0.027104
    19  C    0.381535  -0.030220   0.000880   0.000012   0.000714  -0.024025
    20  H   -0.000015   0.000000  -0.000000   0.000001   0.000029   0.001110
    21  H   -0.000009  -0.000001   0.000001   0.000072  -0.002591   0.000634
    22  H   -0.000010   0.000000  -0.000000   0.000001   0.000011   0.000218
    23  H   -0.025030   0.394244  -0.026842   0.001423   0.000049   0.001259
    24  H    0.001323  -0.024804   0.393649  -0.025115   0.001370   0.000009
    25  H    0.000037   0.001384  -0.024643   0.393440  -0.025321   0.001236
    26  H   -0.000000  -0.000000  -0.000000   0.000000  -0.000037  -0.000001
    27  H   -0.000000   0.000000   0.000000  -0.000002   0.000032   0.000001
    28  H    0.000000   0.000000   0.000000  -0.000000   0.000001  -0.000000
    29  H   -0.000000  -0.000000  -0.000000   0.000001  -0.000033   0.000000
    30  H   -0.000000   0.000000   0.000000   0.000000  -0.000001   0.000009
    31  H   -0.000000   0.000000   0.000000  -0.000000   0.000000   0.000000
    32  H    0.000000  -0.000000   0.000000   0.000000  -0.000000  -0.000000
    33  H   -0.000000   0.000000  -0.000000   0.000000   0.000000   0.000000
    34  H   -0.000000   0.000000   0.000000  -0.000000   0.000000   0.000000
    35  H    0.000000  -0.000000  -0.000000   0.000000  -0.000000   0.000000
    36  H   -0.021138   0.000719  -0.000023   0.000002   0.000001  -0.001833
    37  H   -0.020502  -0.005652   0.000061  -0.000000  -0.000016   0.001130
    38  H   -0.021124   0.000720  -0.000024   0.000003  -0.000000  -0.001848
               7          8          9         10         11         12
     1  C   -0.023439   0.000245   0.000028   0.000618   0.000000   0.000000
     2  C    0.000768   0.000008   0.000000  -0.000007   0.000000  -0.000000
     3  C    0.000019   0.000351  -0.000020  -0.000000   0.000000   0.000000
     4  C    0.000806  -0.027261   0.001698  -0.000033  -0.000014  -0.000000
     5  C   -0.029949   0.294654  -0.039921  -0.004659   0.001584   0.000011
     6  C    0.390009  -0.016866  -0.007361  -0.034438  -0.000003  -0.000001
     7  C    4.770154  -0.001953  -0.025353   0.358878   0.000797   0.000006
     8  O   -0.001953   7.795959   0.262593  -0.016153  -0.019281  -0.000695
     9  C   -0.025353   0.262593   4.742423   0.356106   0.360438  -0.022598
    10  C    0.358878  -0.016153   0.356106   4.841921  -0.024568  -0.004972
    11  C    0.000797  -0.019281   0.360438  -0.024568   4.772074   0.358991
    12  C    0.000006  -0.000695  -0.022598  -0.004972   0.358991   4.699974
    13  N    0.000410   0.000030  -0.002678  -0.020957  -0.021038   0.331028
    14  C   -0.020919  -0.000467  -0.021195   0.354442  -0.005001  -0.031692
    15  C   -0.001352  -0.000001   0.000664  -0.022127   0.000005   0.001334
    16  C    0.000015  -0.000000  -0.000009  -0.000492  -0.000004   0.001318
    17  C   -0.000003  -0.000000   0.000098  -0.001025  -0.001405  -0.032978
    18  O    0.431260  -0.000000   0.000327  -0.026994  -0.000001  -0.000000
    19  C   -0.002590  -0.000001  -0.000000   0.000007  -0.000000  -0.000000
    20  H   -0.023187   0.000545  -0.021978   0.380351  -0.001584   0.000121
    21  H   -0.002029  -0.018885   0.377372  -0.025187  -0.024140   0.001210
    22  H   -0.002627   0.000077  -0.001054  -0.026837  -0.000098  -0.000298
    23  H   -0.000014   0.000000  -0.000000   0.000000   0.000000   0.000000
    24  H    0.000001  -0.000005   0.000000  -0.000000  -0.000000  -0.000000
    25  H   -0.000019  -0.001096   0.000033   0.000000  -0.000003  -0.000000
    26  H    0.000012   0.000584  -0.021017  -0.001381   0.381807  -0.021734
    27  H   -0.000019  -0.000866  -0.021042   0.001270   0.381631  -0.020806
    28  H    0.000001  -0.000001   0.001233  -0.000007  -0.023174   0.382051
    29  H   -0.000001   0.000277  -0.001642  -0.000103  -0.025612   0.381455
    30  H   -0.000138  -0.000000   0.000024  -0.003147   0.000001  -0.000028
    31  H    0.000018   0.000000  -0.000015   0.001164  -0.000001  -0.000003
    32  H    0.000005  -0.000000   0.000001  -0.000042   0.000004  -0.000035
    33  H   -0.000000   0.000000   0.000000  -0.000005  -0.000000  -0.000017
    34  H   -0.000002  -0.000000   0.000037   0.000097   0.000161  -0.003772
    35  H    0.000000   0.000000  -0.000003  -0.000028  -0.000052  -0.000107
    36  H   -0.000052  -0.000000  -0.000000  -0.000003  -0.000000   0.000000
    37  H    0.000014   0.000000   0.000000   0.000000   0.000000   0.000000
    38  H   -0.000082  -0.000000  -0.000000  -0.000002   0.000000  -0.000000
              13         14         15         16         17         18
     1  C    0.000000  -0.000006   0.000000   0.000000   0.000000  -0.001024
     2  C   -0.000000   0.000000  -0.000000  -0.000000   0.000000  -0.000004
     3  C   -0.000000   0.000000  -0.000000   0.000000   0.000000  -0.000000
     4  C   -0.000000  -0.000002   0.000000  -0.000000   0.000000  -0.000002
     5  C   -0.000000  -0.000060  -0.000001  -0.000000   0.000000   0.000326
     6  C   -0.000004  -0.000142   0.000011  -0.000000  -0.000000  -0.027104
     7  C    0.000410  -0.020919  -0.001352   0.000015  -0.000003   0.431260
     8  O    0.000030  -0.000467  -0.000001  -0.000000  -0.000000  -0.000000
     9  C   -0.002678  -0.021195   0.000664  -0.000009   0.000098   0.000327
    10  C   -0.020957   0.354442  -0.022127  -0.000492  -0.001025  -0.026994
    11  C   -0.021038  -0.005001   0.000005  -0.000004  -0.001405  -0.000001
    12  C    0.331028  -0.031692   0.001334   0.001318  -0.032978  -0.000000
    13  N    6.504156   0.330471  -0.034442  -0.030183   0.332970  -0.000000
    14  C    0.330471   4.731990   0.365170  -0.033415  -0.046326  -0.000251
    15  C   -0.034442   0.365170   4.762285   0.361250  -0.032759  -0.000260
    16  C   -0.030183  -0.033415   0.361250   4.756350   0.363482   0.000002
    17  C    0.332970  -0.046326  -0.032759   0.363482   4.715625  -0.000000
    18  O   -0.000000  -0.000251  -0.000260   0.000002  -0.000000   7.858909
    19  C    0.000000  -0.000000  -0.000000   0.000000  -0.000000  -0.001620
    20  H   -0.000651  -0.020450  -0.002907   0.000106  -0.000151  -0.001533
    21  H   -0.000023   0.001145  -0.000014   0.000000  -0.000004   0.000005
    22  H   -0.022499   0.382722  -0.021562   0.001496   0.001954   0.000021
    23  H    0.000000  -0.000000  -0.000000   0.000000  -0.000000   0.000000
    24  H   -0.000000  -0.000000   0.000000  -0.000000  -0.000000  -0.000000
    25  H    0.000000  -0.000000   0.000000  -0.000000  -0.000000   0.000000
    26  H   -0.000642   0.000119  -0.000006  -0.000007  -0.000406  -0.000000
    27  H    0.000845   0.000011   0.000001   0.000000   0.000006   0.000000
    28  H   -0.019237   0.001634  -0.000029   0.000022  -0.003541  -0.000000
    29  H   -0.024238  -0.001121   0.000002  -0.000031   0.001793   0.000000
    30  H    0.001065  -0.018743   0.383294  -0.020036   0.001338   0.000439
    31  H   -0.000319  -0.021269   0.384191  -0.022414   0.000700  -0.000001
    32  H    0.000969   0.000689  -0.021578   0.384304  -0.021886   0.000002
    33  H    0.000688   0.001394  -0.020807   0.385615  -0.020551  -0.000000
    34  H   -0.020644  -0.000331   0.000932  -0.023733   0.379488   0.000000
    35  H   -0.022497   0.001885   0.001238  -0.019868   0.383647   0.000000
    36  H    0.000000  -0.000000   0.000000  -0.000000  -0.000000  -0.000423
    37  H    0.000000  -0.000000   0.000000   0.000000   0.000000   0.000062
    38  H   -0.000000   0.000000  -0.000000   0.000000   0.000000  -0.000249
              19         20         21         22         23         24
     1  C    0.381535  -0.000015  -0.000009  -0.000010  -0.025030   0.001323
     2  C   -0.030220   0.000000  -0.000001   0.000000   0.394244  -0.024804
     3  C    0.000880  -0.000000   0.000001  -0.000000  -0.026842   0.393649
     4  C    0.000012   0.000001   0.000072   0.000001   0.001423  -0.025115
     5  C    0.000714   0.000029  -0.002591   0.000011   0.000049   0.001370
     6  C   -0.024025   0.001110   0.000634   0.000218   0.001259   0.000009
     7  C   -0.002590  -0.023187  -0.002029  -0.002627  -0.000014   0.000001
     8  O   -0.000001   0.000545  -0.018885   0.000077   0.000000  -0.000005
     9  C   -0.000000  -0.021978   0.377372  -0.001054  -0.000000   0.000000
    10  C    0.000007   0.380351  -0.025187  -0.026837   0.000000  -0.000000
    11  C   -0.000000  -0.001584  -0.024140  -0.000098   0.000000  -0.000000
    12  C   -0.000000   0.000121   0.001210  -0.000298   0.000000  -0.000000
    13  N    0.000000  -0.000651  -0.000023  -0.022499   0.000000  -0.000000
    14  C   -0.000000  -0.020450   0.001145   0.382722  -0.000000  -0.000000
    15  C   -0.000000  -0.002907  -0.000014  -0.021562  -0.000000   0.000000
    16  C    0.000000   0.000106   0.000000   0.001496   0.000000  -0.000000
    17  C   -0.000000  -0.000151  -0.000004   0.001954  -0.000000  -0.000000
    18  O   -0.001620  -0.001533   0.000005   0.000021   0.000000  -0.000000
    19  C    4.713068  -0.000001  -0.000000  -0.000000  -0.004256  -0.000016
    20  H   -0.000001   0.623678  -0.002309   0.001714  -0.000000   0.000000
    21  H   -0.000000  -0.002309   0.643353  -0.000016  -0.000000   0.000000
    22  H   -0.000000   0.001714  -0.000016   0.628484  -0.000000   0.000000
    23  H   -0.004256  -0.000000  -0.000000  -0.000000   0.604954  -0.003751
    24  H   -0.000016   0.000000   0.000000   0.000000  -0.003751   0.593556
    25  H    0.000000  -0.000000   0.000000  -0.000000  -0.000032  -0.003720
    26  H    0.000000  -0.000120  -0.002354   0.000002  -0.000000   0.000000
    27  H   -0.000000   0.000020  -0.001898   0.000001   0.000000  -0.000000
    28  H    0.000000  -0.000010  -0.000030   0.000001   0.000000  -0.000000
    29  H    0.000000   0.000002  -0.000007   0.000373  -0.000000   0.000000
    30  H   -0.000000   0.000041  -0.000001   0.000380  -0.000000   0.000000
    31  H    0.000000   0.000025   0.000000  -0.004910  -0.000000  -0.000000
    32  H    0.000000  -0.000157  -0.000000  -0.000021   0.000000   0.000000
    33  H   -0.000000  -0.000004  -0.000000  -0.000038  -0.000000   0.000000
    34  H    0.000000  -0.000466   0.000011  -0.000060  -0.000000  -0.000000
    35  H   -0.000000   0.000005  -0.000000  -0.000029   0.000000   0.000000
    36  H    0.380772   0.000000   0.000000   0.000000   0.000072   0.000000
    37  H    0.382813  -0.000000  -0.000000  -0.000000   0.000163  -0.000003
    38  H    0.380523   0.000000  -0.000000   0.000000   0.000069   0.000000
              25         26         27         28         29         30
     1  C    0.000037  -0.000000  -0.000000   0.000000  -0.000000  -0.000000
     2  C    0.001384  -0.000000   0.000000   0.000000  -0.000000   0.000000
     3  C   -0.024643  -0.000000   0.000000   0.000000  -0.000000   0.000000
     4  C    0.393440   0.000000  -0.000002  -0.000000   0.000001   0.000000
     5  C   -0.025321  -0.000037   0.000032   0.000001  -0.000033  -0.000001
     6  C    0.001236  -0.000001   0.000001  -0.000000   0.000000   0.000009
     7  C   -0.000019   0.000012  -0.000019   0.000001  -0.000001  -0.000138
     8  O   -0.001096   0.000584  -0.000866  -0.000001   0.000277  -0.000000
     9  C    0.000033  -0.021017  -0.021042   0.001233  -0.001642   0.000024
    10  C    0.000000  -0.001381   0.001270  -0.000007  -0.000103  -0.003147
    11  C   -0.000003   0.381807   0.381631  -0.023174  -0.025612   0.000001
    12  C   -0.000000  -0.021734  -0.020806   0.382051   0.381455  -0.000028
    13  N    0.000000  -0.000642   0.000845  -0.019237  -0.024238   0.001065
    14  C   -0.000000   0.000119   0.000011   0.001634  -0.001121  -0.018743
    15  C    0.000000  -0.000006   0.000001  -0.000029   0.000002   0.383294
    16  C   -0.000000  -0.000007   0.000000   0.000022  -0.000031  -0.020036
    17  C   -0.000000  -0.000406   0.000006  -0.003541   0.001793   0.001338
    18  O    0.000000  -0.000000   0.000000  -0.000000   0.000000   0.000439
    19  C    0.000000   0.000000  -0.000000   0.000000   0.000000  -0.000000
    20  H   -0.000000  -0.000120   0.000020  -0.000010   0.000002   0.000041
    21  H    0.000000  -0.002354  -0.001898  -0.000030  -0.000007  -0.000001
    22  H   -0.000000   0.000002   0.000001   0.000001   0.000373   0.000380
    23  H   -0.000032  -0.000000   0.000000   0.000000  -0.000000  -0.000000
    24  H   -0.003720   0.000000  -0.000000  -0.000000   0.000000   0.000000
    25  H    0.589388   0.000000  -0.000000  -0.000000   0.000000  -0.000000
    26  H    0.000000   0.632352  -0.021821  -0.002910   0.001897   0.000000
    27  H   -0.000000  -0.021821   0.621064  -0.001305  -0.002871  -0.000000
    28  H   -0.000000  -0.002910  -0.001305   0.625218  -0.022413   0.000001
    29  H    0.000000   0.001897  -0.002871  -0.022413   0.625306  -0.000000
    30  H   -0.000000   0.000000  -0.000000   0.000001  -0.000000   0.619854
    31  H   -0.000000   0.000000  -0.000000  -0.000000   0.000002  -0.023313
    32  H   -0.000000   0.000004  -0.000000  -0.000001   0.000001  -0.005605
    33  H    0.000000  -0.000000   0.000000  -0.000001   0.000001   0.001007
    34  H   -0.000000  -0.000505  -0.000024  -0.000344  -0.000031  -0.000029
    35  H    0.000000   0.000024   0.000000   0.000301   0.000026  -0.000022
    36  H   -0.000000  -0.000000   0.000000  -0.000000   0.000000   0.000000
    37  H    0.000000  -0.000000  -0.000000   0.000000  -0.000000  -0.000000
    38  H   -0.000000   0.000000  -0.000000   0.000000  -0.000000   0.000001
              31         32         33         34         35         36
     1  C   -0.000000   0.000000  -0.000000  -0.000000   0.000000  -0.021138
     2  C    0.000000  -0.000000   0.000000   0.000000  -0.000000   0.000719
     3  C    0.000000   0.000000  -0.000000   0.000000  -0.000000  -0.000023
     4  C   -0.000000   0.000000   0.000000  -0.000000   0.000000   0.000002
     5  C    0.000000  -0.000000   0.000000   0.000000  -0.000000   0.000001
     6  C    0.000000  -0.000000   0.000000   0.000000   0.000000  -0.001833
     7  C    0.000018   0.000005  -0.000000  -0.000002   0.000000  -0.000052
     8  O    0.000000  -0.000000   0.000000  -0.000000   0.000000  -0.000000
     9  C   -0.000015   0.000001   0.000000   0.000037  -0.000003  -0.000000
    10  C    0.001164  -0.000042  -0.000005   0.000097  -0.000028  -0.000003
    11  C   -0.000001   0.000004  -0.000000   0.000161  -0.000052  -0.000000
    12  C   -0.000003  -0.000035  -0.000017  -0.003772  -0.000107   0.000000
    13  N   -0.000319   0.000969   0.000688  -0.020644  -0.022497   0.000000
    14  C   -0.021269   0.000689   0.001394  -0.000331   0.001885  -0.000000
    15  C    0.384191  -0.021578  -0.020807   0.000932   0.001238   0.000000
    16  C   -0.022414   0.384304   0.385615  -0.023733  -0.019868  -0.000000
    17  C    0.000700  -0.021886  -0.020551   0.379488   0.383647  -0.000000
    18  O   -0.000001   0.000002  -0.000000   0.000000   0.000000  -0.000423
    19  C    0.000000   0.000000  -0.000000   0.000000  -0.000000   0.380772
    20  H    0.000025  -0.000157  -0.000004  -0.000466   0.000005   0.000000
    21  H    0.000000  -0.000000  -0.000000   0.000011  -0.000000   0.000000
    22  H   -0.004910  -0.000021  -0.000038  -0.000060  -0.000029   0.000000
    23  H   -0.000000   0.000000  -0.000000  -0.000000   0.000000   0.000072
    24  H   -0.000000   0.000000   0.000000  -0.000000   0.000000   0.000000
    25  H   -0.000000  -0.000000   0.000000  -0.000000   0.000000  -0.000000
    26  H    0.000000   0.000004  -0.000000  -0.000505   0.000024  -0.000000
    27  H   -0.000000  -0.000000   0.000000  -0.000024   0.000000   0.000000
    28  H   -0.000000  -0.000001  -0.000001  -0.000344   0.000301  -0.000000
    29  H    0.000002   0.000001   0.000001  -0.000031   0.000026   0.000000
    30  H   -0.023313  -0.005605   0.001007  -0.000029  -0.000022   0.000000
    31  H    0.630135   0.001837  -0.006733  -0.000030  -0.000028  -0.000000
    32  H    0.001837   0.636539  -0.023471  -0.006885   0.001380  -0.000000
    33  H   -0.006733  -0.023471   0.627862   0.001682  -0.005816   0.000000
    34  H   -0.000030  -0.006885   0.001682   0.660707  -0.027634  -0.000000
    35  H   -0.000028   0.001380  -0.005816  -0.027634   0.627387   0.000000
    36  H   -0.000000  -0.000000   0.000000  -0.000000   0.000000   0.605948
    37  H   -0.000000  -0.000000  -0.000000  -0.000000   0.000000  -0.021996
    38  H    0.000000   0.000000  -0.000000   0.000000  -0.000000  -0.018390
              37         38
     1  C   -0.020502  -0.021124
     2  C   -0.005652   0.000720
     3  C    0.000061  -0.000024
     4  C   -0.000000   0.000003
     5  C   -0.000016  -0.000000
     6  C    0.001130  -0.001848
     7  C    0.000014  -0.000082
     8  O    0.000000  -0.000000
     9  C    0.000000  -0.000000
    10  C    0.000000  -0.000002
    11  C    0.000000   0.000000
    12  C    0.000000  -0.000000
    13  N    0.000000  -0.000000
    14  C   -0.000000   0.000000
    15  C    0.000000  -0.000000
    16  C    0.000000   0.000000
    17  C    0.000000   0.000000
    18  O    0.000062  -0.000249
    19  C    0.382813   0.380523
    20  H   -0.000000   0.000000
    21  H   -0.000000  -0.000000
    22  H   -0.000000   0.000000
    23  H    0.000163   0.000069
    24  H   -0.000003   0.000000
    25  H    0.000000  -0.000000
    26  H   -0.000000   0.000000
    27  H   -0.000000  -0.000000
    28  H    0.000000   0.000000
    29  H   -0.000000  -0.000000
    30  H   -0.000000   0.000001
    31  H   -0.000000   0.000000
    32  H   -0.000000   0.000000
    33  H   -0.000000  -0.000000
    34  H   -0.000000   0.000000
    35  H    0.000000  -0.000000
    36  H   -0.021996  -0.018390
    37  H    0.624630  -0.021954
    38  H   -0.021954   0.607552
 Mulliken charges:
               1
     1  C    0.035102
     2  C   -0.080197
     3  C   -0.047594
     4  C   -0.086520
     5  C    0.132084
     6  C   -0.068460
     7  C    0.180556
     8  O   -0.251793
     9  C    0.082809
    10  C   -0.081687
    11  C   -0.111514
    12  C   -0.017763
    13  N   -0.282578
    14  C    0.049715
    15  C   -0.102528
    16  C   -0.103768
    17  C   -0.020067
    18  O   -0.231888
    19  C   -0.177595
    20  H    0.067775
    21  H    0.055696
    22  H    0.062604
    23  H    0.057692
    24  H    0.067507
    25  H    0.069315
    26  H    0.056138
    27  H    0.065773
    28  H    0.062540
    29  H    0.066970
    30  H    0.063611
    31  H    0.060962
    32  H    0.053948
    33  H    0.059194
    34  H    0.041375
    35  H    0.060190
    36  H    0.076342
    37  H    0.061249
    38  H    0.074806
 Sum of Mulliken charges =  -0.00000
 Mulliken charges with hydrogens summed into heavy atoms:
               1
     1  C    0.035102
     2  C   -0.022505
     3  C    0.019913
     4  C   -0.017205
     5  C    0.132084
     6  C   -0.068460
     7  C    0.180556
     8  O   -0.251793
     9  C    0.138505
    10  C   -0.013912
    11  C    0.010397
    12  C    0.111746
    13  N   -0.282578
    14  C    0.112319
    15  C    0.022045
    16  C    0.009374
    17  C    0.081497
    18  O   -0.231888
    19  C    0.034802
 Electronic spatial extent (au):  <R**2>=           4804.1449
 Charge=              0.0000 electrons
 Dipole moment (field-independent basis, Debye):
    X=              0.0414    Y=             -0.6036    Z=              0.9878  Tot=              1.1583
 Quadrupole moment (field-independent basis, Debye-Ang):
   XX=           -100.1659   YY=           -109.1773   ZZ=           -105.9983
   XY=              0.5148   XZ=              4.6485   YZ=             -3.0955
 Traceless Quadrupole moment (field-independent basis, Debye-Ang):
   XX=              4.9479   YY=             -4.0634   ZZ=             -0.8845
   XY=              0.5148   XZ=              4.6485   YZ=             -3.0955
 Octapole moment (field-independent basis, Debye-Ang**2):
  XXX=            -13.9497  YYY=            -12.0802  ZZZ=              9.9558  XYY=              1.9400
  XXY=              1.5997  XXZ=              4.3254  XZZ=             -0.4206  YZZ=              0.7563
  YYZ=             -6.5808  XYZ=             -4.9947
 Hexadecapole moment (field-independent basis, Debye-Ang**3):
 XXXX=          -4094.0255 YYYY=          -1515.9118 ZZZZ=           -397.2803 XXXY=             -7.1931
 XXXZ=             42.8501 YYYX=             -3.1068 YYYZ=             -1.7373 ZZZX=             -4.6382
 ZZZY=              6.9134 XXYY=           -919.1696 XXZZ=           -792.7823 YYZZ=           -315.7363
 XXYZ=              5.5019 YYXZ=              6.7959 ZZXY=              4.8505
 N-N= 1.509437220778D+03 E-N=-4.914001587072D+03  KE= 8.035548625028D+02
 ******************************Gaussian NBO Version 3.1******************************
             N A T U R A L   A T O M I C   O R B I T A L   A N D
          N A T U R A L   B O N D   O R B I T A L   A N A L Y S I S
 ******************************Gaussian NBO Version 3.1******************************
       /RESON  / : Allow strongly delocalized NBO set
       /NLMO   / : Form Natural Localized Molecular Orbitals
       /NMR /    : Analyze NMR Sheilding Tensor 

 Analyzing the SCF density

 Job title: Title Card Required                                             

 Storage needed:     43472 in NPA,     53775 in NBO,    102144 in NLMO ( 104850000 available)
 GSVD:  LWork=      -13908 too small for GESVD, short by       66690 words or       66690 for optimal perf.


 NATURAL POPULATIONS:  Natural atomic orbital occupancies 
                                                          
   NAO  Atom  No  lang   Type(AO)    Occupancy      Energy
 ----------------------------------------------------------
     1    C    1  S      Cor( 1S)     1.99991     -10.98476
     2    C    1  S      Val( 2S)     1.08168      -0.20123
     3    C    1  px     Val( 2p)     0.95595       0.15239
     4    C    1  py     Val( 2p)     0.95011       0.14621
     5    C    1  pz     Val( 2p)     0.93468       0.03323

     6    C    2  S      Cor( 1S)     1.99995     -10.94707
     7    C    2  S      Val( 2S)     1.07994      -0.18573
     8    C    2  px     Val( 2p)     0.98007       0.14187
     9    C    2  py     Val( 2p)     0.97307       0.14998
    10    C    2  pz     Val( 2p)     1.04174       0.01023

    11    C    3  S      Cor( 1S)     1.99994     -10.96459
    12    C    3  S      Val( 2S)     1.08002      -0.18943
    13    C    3  px     Val( 2p)     0.98154       0.13575
    14    C    3  py     Val( 2p)     0.98353       0.13970
    15    C    3  pz     Val( 2p)     0.96155       0.02239

    16    C    4  S      Cor( 1S)     1.99994     -10.94894
    17    C    4  S      Val( 2S)     1.07669      -0.18593
    18    C    4  px     Val( 2p)     0.97594       0.14148
    19    C    4  py     Val( 2p)     0.99006       0.13761
    20    C    4  pz     Val( 2p)     1.05336       0.00474

    21    C    5  S      Cor( 1S)     1.99978     -11.03451
    22    C    5  S      Val( 2S)     1.05966      -0.21568
    23    C    5  px     Val( 2p)     0.84669       0.14312
    24    C    5  py     Val( 2p)     0.94027       0.14628
    25    C    5  pz     Val( 2p)     0.96409      -0.00194

    26    C    6  S      Cor( 1S)     1.99991     -10.96174
    27    C    6  S      Val( 2S)     1.08630      -0.20820
    28    C    6  px     Val( 2p)     0.98122       0.13280
    29    C    6  py     Val( 2p)     0.96853       0.13738
    30    C    6  pz     Val( 2p)     1.09501      -0.01234

    31    C    7  S      Cor( 1S)     1.99996     -11.05432
    32    C    7  S      Val( 2S)     1.07793      -0.24437
    33    C    7  px     Val( 2p)     0.93956       0.11001
    34    C    7  py     Val( 2p)     0.85143       0.16638
    35    C    7  pz     Val( 2p)     0.89344       0.00368

    36    O    8  S      Cor( 1S)     1.99999     -20.20985
    37    O    8  S      Val( 2S)     1.73085      -1.02185
    38    O    8  px     Val( 2p)     1.25963      -0.10693
    39    O    8  py     Val( 2p)     1.62498      -0.27726
    40    O    8  pz     Val( 2p)     1.64148      -0.27764

    41    C    9  S      Cor( 1S)     1.99987     -11.06183
    42    C    9  S      Val( 2S)     1.08398      -0.24165
    43    C    9  px     Val( 2p)     0.91335       0.06812
    44    C    9  py     Val( 2p)     0.93671       0.07398
    45    C    9  pz     Val( 2p)     0.91247       0.07904

    46    C   10  S      Cor( 1S)     1.99996     -11.00293
    47    C   10  S      Val( 2S)     1.10369      -0.23406
    48    C   10  px     Val( 2p)     1.00292       0.06127
    49    C   10  py     Val( 2p)     0.98568       0.06840
    50    C   10  pz     Val( 2p)     1.00880       0.06670

    51    C   11  S      Cor( 1S)     1.99996     -10.99056
    52    C   11  S      Val( 2S)     1.08816      -0.21004
    53    C   11  px     Val( 2p)     0.98424       0.07674
    54    C   11  py     Val( 2p)     1.01653       0.07059
    55    C   11  pz     Val( 2p)     1.00362       0.07446

    56    C   12  S      Cor( 1S)     1.99993     -11.01285
    57    C   12  S      Val( 2S)     1.07200      -0.19738
    58    C   12  px     Val( 2p)     1.02140       0.06977
    59    C   12  py     Val( 2p)     0.89719       0.10587
    60    C   12  pz     Val( 2p)     0.97511       0.08871

    61    N   13  S      Cor( 1S)     1.99999     -15.24738
    62    N   13  S      Val( 2S)     1.43924      -0.59441
    63    N   13  px     Val( 2p)     1.08275       0.02368
    64    N   13  py     Val( 2p)     1.04251       0.04658
    65    N   13  pz     Val( 2p)     1.70522      -0.22054

    66    C   14  S      Cor( 1S)     1.99994     -11.02722
    67    C   14  S      Val( 2S)     1.08226      -0.21578
    68    C   14  px     Val( 2p)     0.91315       0.10625
    69    C   14  py     Val( 2p)     0.94714       0.07720
    70    C   14  pz     Val( 2p)     0.96004       0.09277

    71    C   15  S      Cor( 1S)     1.99997     -10.97811
    72    C   15  S      Val( 2S)     1.08541      -0.19400
    73    C   15  px     Val( 2p)     0.98172       0.08805
    74    C   15  py     Val( 2p)     0.98250       0.09624
    75    C   15  pz     Val( 2p)     1.02254       0.08281

    76    C   16  S      Cor( 1S)     1.99997     -10.97822
    77    C   16  S      Val( 2S)     1.08121      -0.19073
    78    C   16  px     Val( 2p)     0.99137       0.08756
    79    C   16  py     Val( 2p)     0.98072       0.09270
    80    C   16  pz     Val( 2p)     1.01672       0.08834

    81    C   17  S      Cor( 1S)     1.99994     -11.00780
    82    C   17  S      Val( 2S)     1.07342      -0.19485
    83    C   17  px     Val( 2p)     0.95653       0.09188
    84    C   17  py     Val( 2p)     0.95670       0.07956
    85    C   17  pz     Val( 2p)     0.97934       0.09690

    86    O   18  S      Cor( 1S)     1.99999     -20.11263
    87    O   18  S      Val( 2S)     1.80579      -1.06143
    88    O   18  px     Val( 2p)     1.89706      -0.34556
    89    O   18  py     Val( 2p)     1.34457      -0.11445
    90    O   18  pz     Val( 2p)     1.19489      -0.11498

    91    C   19  S      Cor( 1S)     1.99997     -10.97648
    92    C   19  S      Val( 2S)     1.07807      -0.18689
    93    C   19  px     Val( 2p)     1.03771       0.07353
    94    C   19  py     Val( 2p)     0.98752       0.08295
    95    C   19  pz     Val( 2p)     1.04320       0.07170

    96    H   20  S      Val( 1S)     0.95333       0.05185

    97    H   21  S      Val( 1S)     0.98099       0.03247

    98    H   22  S      Val( 1S)     0.96874       0.05748

    99    H   23  S      Val( 1S)     0.96758       0.06701

   100    H   24  S      Val( 1S)     0.96070       0.06113

   101    H   25  S      Val( 1S)     0.95553       0.07312

   102    H   26  S      Val( 1S)     0.96391       0.05588

   103    H   27  S      Val( 1S)     0.95499       0.06557

   104    H   28  S      Val( 1S)     0.96364       0.06116

   105    H   29  S      Val( 1S)     0.96106       0.07274

   106    H   30  S      Val( 1S)     0.95798       0.07529

   107    H   31  S      Val( 1S)     0.95982       0.07465

   108    H   32  S      Val( 1S)     0.96621       0.06809

   109    H   33  S      Val( 1S)     0.96110       0.07280

   110    H   34  S      Val( 1S)     0.98569       0.05404

   111    H   35  S      Val( 1S)     0.96676       0.06702

   112    H   36  S      Val( 1S)     0.94011       0.08248

   113    H   37  S      Val( 1S)     0.95540       0.07356

   114    H   38  S      Val( 1S)     0.94141       0.08083


 Summary of Natural Population Analysis:                  
                                                          
                                       Natural Population 
                Natural  -----------------------------------------------
    Atom  No    Charge         Core      Valence    Rydberg      Total
 -----------------------------------------------------------------------
      C    1    0.07767      1.99991     3.92242    0.00000     5.92233
      C    2   -0.07477      1.99995     4.07482    0.00000     6.07477
      C    3   -0.00658      1.99994     4.00665    0.00000     6.00658
      C    4   -0.09599      1.99994     4.09605    0.00000     6.09599
      C    5    0.18951      1.99978     3.81071    0.00000     5.81049
      C    6   -0.13097      1.99991     4.13106    0.00000     6.13097
      C    7    0.23768      1.99996     3.76236    0.00000     5.76232
      O    8   -0.25695      1.99999     6.25695    0.00000     8.25695
      C    9    0.15361      1.99987     3.84652    0.00000     5.84639
      C   10   -0.10106      1.99996     4.10109    0.00000     6.10106
      C   11   -0.09251      1.99996     4.09255    0.00000     6.09251
      C   12    0.03437      1.99993     3.96570    0.00000     5.96563
      N   13   -0.26970      1.99999     5.26971    0.00000     7.26970
      C   14    0.09747      1.99994     3.90259    0.00000     5.90253
      C   15   -0.07213      1.99997     4.07217    0.00000     6.07213
      C   16   -0.06999      1.99997     4.07001    0.00000     6.06999
      C   17    0.03407      1.99994     3.96599    0.00000     5.96593
      O   18   -0.24231      1.99999     6.24232    0.00000     8.24231
      C   19   -0.14647      1.99997     4.14649    0.00000     6.14647
      H   20    0.04667      0.00000     0.95333    0.00000     0.95333
      H   21    0.01901      0.00000     0.98099    0.00000     0.98099
      H   22    0.03126      0.00000     0.96874    0.00000     0.96874
      H   23    0.03242      0.00000     0.96758    0.00000     0.96758
      H   24    0.03930      0.00000     0.96070    0.00000     0.96070
      H   25    0.04447      0.00000     0.95553    0.00000     0.95553
      H   26    0.03609      0.00000     0.96391    0.00000     0.96391
      H   27    0.04501      0.00000     0.95499    0.00000     0.95499
      H   28    0.03636      0.00000     0.96364    0.00000     0.96364
      H   29    0.03894      0.00000     0.96106    0.00000     0.96106
      H   30    0.04202      0.00000     0.95798    0.00000     0.95798
      H   31    0.04018      0.00000     0.95982    0.00000     0.95982
      H   32    0.03379      0.00000     0.96621    0.00000     0.96621
      H   33    0.03890      0.00000     0.96110    0.00000     0.96110
      H   34    0.01431      0.00000     0.98569    0.00000     0.98569
      H   35    0.03324      0.00000     0.96676    0.00000     0.96676
      H   36    0.05989      0.00000     0.94011    0.00000     0.94011
      H   37    0.04460      0.00000     0.95540    0.00000     0.95540
      H   38    0.05859      0.00000     0.94141    0.00000     0.94141
 =======================================================================
   * Total *   -0.00000     37.99888   100.00112    0.00000   138.00000

                                 Natural Population      
 --------------------------------------------------------
   Core                      37.99888 ( 99.9971% of  38)
   Valence                  100.00112 (100.0011% of 100)
   Natural Minimal Basis    138.00000 (100.0000% of 138)
   Natural Rydberg Basis      0.00000 (  0.0000% of 138)
 --------------------------------------------------------

    Atom  No          Natural Electron Configuration
 ----------------------------------------------------------------------------
      C    1      [core]2S( 1.08)2p( 2.84)
      C    2      [core]2S( 1.08)2p( 2.99)
      C    3      [core]2S( 1.08)2p( 2.93)
      C    4      [core]2S( 1.08)2p( 3.02)
      C    5      [core]2S( 1.06)2p( 2.75)
      C    6      [core]2S( 1.09)2p( 3.04)
      C    7      [core]2S( 1.08)2p( 2.68)
      O    8      [core]2S( 1.73)2p( 4.53)
      C    9      [core]2S( 1.08)2p( 2.76)
      C   10      [core]2S( 1.10)2p( 3.00)
      C   11      [core]2S( 1.09)2p( 3.00)
      C   12      [core]2S( 1.07)2p( 2.89)
      N   13      [core]2S( 1.44)2p( 3.83)
      C   14      [core]2S( 1.08)2p( 2.82)
      C   15      [core]2S( 1.09)2p( 2.99)
      C   16      [core]2S( 1.08)2p( 2.99)
      C   17      [core]2S( 1.07)2p( 2.89)
      O   18      [core]2S( 1.81)2p( 4.44)
      C   19      [core]2S( 1.08)2p( 3.07)
      H   20            1S( 0.95)
      H   21            1S( 0.98)
      H   22            1S( 0.97)
      H   23            1S( 0.97)
      H   24            1S( 0.96)
      H   25            1S( 0.96)
      H   26            1S( 0.96)
      H   27            1S( 0.95)
      H   28            1S( 0.96)
      H   29            1S( 0.96)
      H   30            1S( 0.96)
      H   31            1S( 0.96)
      H   32            1S( 0.97)
      H   33            1S( 0.96)
      H   34            1S( 0.99)
      H   35            1S( 0.97)
      H   36            1S( 0.94)
      H   37            1S( 0.96)
      H   38            1S( 0.94)


 NATURAL BOND ORBITAL ANALYSIS:

                       Occupancies       Lewis Structure    Low   High
           Occ.    -------------------  -----------------   occ   occ
  Cycle   Thresh.   Lewis   Non-Lewis     CR  BD  3C  LP    (L)   (NL)   Dev
 =============================================================================
   1(1)    1.90   134.43071   3.56929     19  43   0   7     3      3    0.45
   2(2)    1.90   134.43071   3.56929     19  43   0   7     3      3    0.45
   3(1)    1.80   134.34710   3.65290     19  42   0   8     3      3    0.45
   4(2)    1.80   134.34710   3.65290     19  42   0   8     3      3    0.45
   5(1)    1.70   134.34710   3.65290     19  42   0   8     3      3    0.45
   6(2)    1.70   134.34710   3.65290     19  42   0   8     3      3    0.45
   7(1)    1.60   135.51626   2.48374     19  44   0   6     1      3    0.43
   8(2)    1.60   136.12573   1.87427     19  45   0   5     0      3    0.43
   9(3)    1.60   136.08741   1.91259     19  45   0   5     0      3    0.45
  10(4)    1.60   136.12573   1.87427     19  45   0   5     0      3    0.43
  11(1)    1.50   136.12573   1.87427     19  45   0   5     0      3    0.43
  12(2)    1.50   136.08741   1.91259     19  45   0   5     0      3    0.45
  13(3)    1.50   136.12573   1.87427     19  45   0   5     0      3    0.43
  14(1)    1.60   136.12573   1.87427     19  45   0   5     0      3    0.43
 -----------------------------------------------------------------------------

 Structure accepted: RESONANCE keyword permits strongly delocalized structure

 --------------------------------------------------------
   Core                     37.99888 ( 99.997% of  38)
   Valence Lewis            98.12686 ( 98.127% of 100)
  ==================       ============================
   Total Lewis             136.12573 ( 98.642% of 138)
  -----------------------------------------------------
   Valence non-Lewis         1.87427 (  1.358% of 138)
   Rydberg non-Lewis         0.00000 (  0.000% of 138)
  ==================       ============================
   Total non-Lewis           1.87427 (  1.358% of 138)
 --------------------------------------------------------


       (Occupancy)   Bond orbital/ Coefficients/ Hybrids
 ---------------------------------------------------------------------------------
     1. (1.98533) BD ( 1) C   1 - C   2  
                ( 50.02%)   0.7072* C   1 s( 33.72%)p 1.97( 66.28%)
                                            0.0000  0.5807 -0.6208 -0.4597 -0.2569
                ( 49.98%)   0.7070* C   2 s( 34.47%)p 1.90( 65.53%)
                                            0.0001  0.5871  0.6090  0.4630  0.2646
     2. (1.65849) BD ( 2) C   1 - C   2  
                ( 45.51%)   0.6746* C   1 s(  0.00%)p 1.00(100.00%)
                                            0.0000 -0.0014 -0.2509 -0.1931  0.9485
                ( 54.49%)   0.7382* C   2 s(  0.00%)p 1.00(100.00%)
                                           -0.0000 -0.0008 -0.2551 -0.2036  0.9452
     3. (1.98108) BD ( 1) C   1 - C   6  
                ( 49.44%)   0.7032* C   1 s( 34.62%)p 1.89( 65.38%)
                                            0.0001  0.5883  0.7321 -0.3179  0.1298
                ( 50.56%)   0.7110* C   6 s( 35.60%)p 1.81( 64.40%)
                                            0.0000  0.5966 -0.7089  0.3596 -0.1101
     4. (1.98736) BD ( 1) C   1 - C  19  
                ( 50.16%)   0.7082* C   1 s( 31.66%)p 2.16( 68.34%)
                                           -0.0000  0.5627 -0.1254  0.8064  0.1319
                ( 49.84%)   0.7060* C  19 s( 25.58%)p 2.91( 74.42%)
                                            0.0001  0.5057  0.1520 -0.8392 -0.1300
     5. (1.98978) BD ( 1) C   2 - C   3  
                ( 49.55%)   0.7039* C   2 s( 34.19%)p 1.92( 65.81%)
                                            0.0001  0.5847  0.1007 -0.7922 -0.1429
                ( 50.45%)   0.7103* C   3 s( 34.33%)p 1.91( 65.67%)
                                            0.0000  0.5859 -0.1159  0.7890  0.1439
     6. (1.98877) BD ( 1) C   2 - H  23  
                ( 51.64%)   0.7186* C   2 s( 31.34%)p 2.19( 68.66%)
                                           -0.0001  0.5598 -0.7442  0.3415 -0.1268
                ( 48.36%)   0.6954* H  23 s(100.00%)
[...]
   41       2.3817       -8.3719      10.7535        -8.5182      10.8999
   42      -1.2984       -1.0537      -0.2447       -12.6917      11.3933
   62     200.0063       -0.0069     200.0132         0.0062     200.0001
   67       2.3574        0.0746       2.2829         1.3003       1.0571
 Sum      199.4560      -40.6306     240.0866       -43.8149     243.2709

 Contributions to Isotropic shielding for atom   18 (  -359.3029 ppm):
                         Standard Origin              Atomic Origin
 NLMO      Total    Paramagnetic  Diamagnetic   Paramagnetic  Diamagnetic
    3      -0.5103       -0.5182       0.0080        -1.1704       0.6601
    4       0.1335       -1.0157       1.1493        -0.8454       0.9789
    8       0.3240       -0.2223       0.5463        -0.7126       1.0366
   13       0.7869       -0.2035       0.9903        -0.6850       1.4719
   15     -10.7751      -10.9010       0.1259       -11.5021       0.7271
   16     -10.7973      -11.1791       0.3818       -11.5754       0.7781
   17    -118.2431     -128.5810      10.3379      -127.6901       9.4470
   18     -26.2920      -51.0908      24.7988       -51.2799      24.9879
   20      -1.0662       -1.2285       0.1623        -1.2484       0.1822
   24      -0.4028       -0.7167       0.3139        -1.4675       1.0647
   36      -0.4189       -1.0723       0.6534        -0.6614       0.2425
   43      -0.3856       -1.8392       1.4535        -1.3523       0.9667
   45      -0.3799       -1.6165       1.2366        -1.3416       0.9616
   63     271.9266       -0.0054     271.9319        -0.0053     271.9319
   68     -34.7421      -69.8816      35.1395       -69.7921      35.0501
   69    -428.1400     -464.9748      36.8348      -467.8150      39.6749
 Sum     -358.9824     -745.0468     386.0643      -749.1445     390.1621

 Contributions to Isotropic shielding for atom   19 (   218.0845 ppm):
                         Standard Origin              Atomic Origin
 NLMO      Total    Paramagnetic  Diamagnetic   Paramagnetic  Diamagnetic
    1      -1.9461       -1.3564      -0.5897        -2.4341       0.4880
    2      -0.8821       -0.6547      -0.2274        -2.5356       1.6535
    3      -1.0820       -1.5130       0.4310        -1.3815       0.2995
    4       3.8474      -11.3029      15.1502        -3.1014       6.9488
    6      -0.6449       -1.4756       0.8308        -1.6813       1.0365
    8       0.8097       -0.2703       1.0800        -0.3763       1.1859
   15      -0.3932        0.0861      -0.4793        -1.2523       0.8591
   17      -0.4275       -0.3122      -0.1153        -1.1679       0.7404
   18       0.2623        0.2208       0.0415        -1.2192       1.4815
   43       7.1018       -3.1734      10.2752        -4.3656      11.4674
   44       4.0093        4.9847      -0.9753        -7.1777      11.1870
   45       6.9261       -6.2205      13.1465        -4.4843      11.4103
   64     200.0789       -0.0036     200.0825         0.0034     200.0754
 Sum      217.6595      -20.9912     238.6507       -31.1737     248.8333

 Contributions to Isotropic shielding for atom   20 (    31.1291 ppm):
                         Standard Origin              Atomic Origin
 NLMO      Total    Paramagnetic  Diamagnetic   Paramagnetic  Diamagnetic
   16       1.5954        1.5429       0.0526         0.7914       0.8041
   17      -0.7358       -0.9091       0.1733        -1.7069       0.9711
   18       0.3646       -0.2587       0.6233        -1.3338       1.6985
   20       1.2966        1.3103      -0.0136         0.5340       0.7626
   23       1.1791        1.1364       0.0427         0.2684       0.9107
   24      25.9326        0.0321      25.9006         0.4426      25.4900
   26      -0.0907       -1.0289       0.9381        -0.9029       0.8121
   39      -0.1251       -1.1832       1.0580        -0.8222       0.6971
   41      -0.1324       -1.1957       1.0633        -0.7283       0.5959
 Sum       29.2844       -0.5538      29.8382        -3.4577      32.7421

 Contributions to Isotropic shielding for atom   21 (    31.3190 ppm):
                         Standard Origin              Atomic Origin
 NLMO      Total    Paramagnetic  Diamagnetic   Paramagnetic  Diamagnetic
   13      -0.0157       -0.4653       0.4495        -1.3212       1.3055
   19       0.8371        0.6073       0.2298        -0.5701       1.4073
   20       0.9743       -0.0923       1.0666         0.1271       0.8472
   21       0.4383        1.1961      -0.7578        -0.6896       1.1278
   22      26.4173        0.4022      26.0151         0.8498      25.5674
   26       0.2434       -0.6458       0.8892        -0.7621       1.0056
 Sum       28.8947        1.0021      27.8925        -2.3661      31.2608

 Contributions to Isotropic shielding for atom   22 (    31.8787 ppm):
                         Standard Origin              Atomic Origin
 NLMO      Total    Paramagnetic  Diamagnetic   Paramagnetic  Diamagnetic
   13      -0.1130       -0.6056       0.4925        -1.3382       1.2252
   19       0.0639       -0.4389       0.5027        -0.9964       1.0603
   23       1.3067       -0.5373       1.8440         0.5138       0.7930
   31       0.8655        0.7625       0.1030        -0.3023       1.1678
   34      26.1093        0.4559      25.6534         0.6035      25.5058
   37       0.0984       -1.2079       1.3063        -1.0136       1.1120
 Sum       28.3308       -1.5712      29.9019        -2.5333      30.8641

 Contributions to Isotropic shielding for atom   23 (    25.8975 ppm):
                         Standard Origin              Atomic Origin
 NLMO      Total    Paramagnetic  Diamagnetic   Paramagnetic  Diamagnetic
    1      -1.4592       -2.6716       1.2124        -2.0348       0.5756
    2       0.7680        1.5210      -0.7530        -2.5930       3.3610
    4      -0.6850        0.6812      -1.3662        -1.7636       1.0785
    5      -1.9836       -1.3248      -0.6588        -2.6861       0.7025
    6      27.0185        0.9541      26.0644         1.5446      25.4738
    9      -0.0862       -0.1165       0.0303        -1.1911       1.1049
   13       0.5862        0.8197      -0.2336        -0.6664       1.2525
   44      -0.1247       -1.4195       1.2948        -0.9038       0.7791
 Sum       24.0340       -1.5564      25.5904       -10.2941      34.3281

 Contributions to Isotropic shielding for atom   24 (    25.2806 ppm):
                         Standard Origin              Atomic Origin
 NLMO      Total    Paramagnetic  Diamagnetic   Paramagnetic  Diamagnetic
    2       1.1604        0.7011       0.4593         0.0975       1.0629
    5      -2.0615       -1.9140      -0.1476        -2.8007       0.7392
    6      -0.1011       -0.0196      -0.0814        -1.2308       1.1297
    7      -1.8553       -2.6895       0.8342        -2.5753       0.7199
    8       0.5893        1.2189      -0.6296        -2.2325       2.8218
    9      26.8741        1.1151      25.7590         1.5902      25.2839
   11      -0.1115        0.5850      -0.6965        -1.2197       1.1083
   13       0.4679        0.7240      -0.2560        -0.9066       1.3746
 Sum       24.9623       -0.2791      25.2414        -9.2779      34.2402

 Contributions to Isotropic shielding for atom   25 (    25.7115 ppm):
                         Standard Origin              Atomic Origin
 NLMO      Total    Paramagnetic  Diamagnetic   Paramagnetic  Diamagnetic
    2       1.2034       -0.4493       1.6527        -0.0262       1.2296
    7      -1.7713       -0.9949      -0.7764        -2.4560       0.6847
    8       0.3256       -0.0468       0.3725        -3.0778       3.4035
    9      -0.0537       -1.0111       0.9573        -1.1506       1.0969
   10      -0.8858       -2.4612       1.5754        -1.4402       0.5544
   11      26.5167        1.0826      25.4340         1.3058      25.2108
   14      -0.4503        0.3044      -0.7547        -2.0616       1.6113
   65      -0.2418       -0.4275       0.1857         0.7594      -1.0012
 Sum       24.6427       -4.0037      28.6464        -8.1473      32.7900

 Contributions to Isotropic shielding for atom   26 (    32.2407 ppm):
                         Standard Origin              Atomic Origin
 NLMO      Total    Paramagnetic  Diamagnetic   Paramagnetic  Diamagnetic
   21       1.6241        0.0044       1.6197         0.8600       0.7641
   25       1.0701        1.2800      -0.2099         0.1366       0.9335
   26      26.2695        0.0595      26.2100         0.4335      25.8360
   27       1.9837        2.2474      -0.2637         0.1914       1.7922
   41      -0.2477       -1.0869       0.8392        -0.5150       0.2673
 Sum       30.6996        2.5044      28.1952         1.1066      29.5930

 Contributions to Isotropic shielding for atom   27 (    31.7333 ppm):
                         Standard Origin              Atomic Origin
 NLMO      Total    Paramagnetic  Diamagnetic   Paramagnetic  Diamagnetic
   19      -0.0702        0.5177      -0.5878        -1.7228       1.6526
   21       1.4623        0.2504       1.2119         0.6107       0.8516
   25       1.1086        1.6185      -0.5099         0.0383       1.0703
   26       1.9765        2.1071      -0.1307         0.2079       1.7686
   27      26.0251        0.0370      25.9881         0.4331      25.5921
   30       0.1677       -0.2920       0.4597        -0.8734       1.0411
 Sum       30.6700        4.2387      26.4313        -1.3062      31.9762

 Contributions to Isotropic shielding for atom   28 (    31.6345 ppm):
                         Standard Origin              Atomic Origin
 NLMO      Total    Paramagnetic  Diamagnetic   Paramagnetic  Diamagnetic
   25       0.5977        1.2635      -0.6658        -0.3674       0.9651
   28       0.6525        1.3831      -0.7306        -0.5215       1.1740
   29      26.3656        0.0637      26.3020         0.7603      25.6053
   30       1.9130        1.6912       0.2218         0.0502       1.8628
   32      -0.3415        0.4650      -0.8065        -1.3920       1.0505
 Sum       29.1872        4.8664      24.3209        -1.4705      30.6577

 Contributions to Isotropic shielding for atom   29 (    31.1574 ppm):
                         Standard Origin              Atomic Origin
 NLMO      Total    Paramagnetic  Diamagnetic   Paramagnetic  Diamagnetic
   19       0.0515        0.0544      -0.0029        -1.2565       1.3080
   25       1.2238       -0.2624       1.4862         0.2878       0.9360
   28       1.3945       -0.3733       1.7678         0.0065       1.3879
   29       1.5047        1.9785      -0.4738        -0.3968       1.9015
   30      26.0949        0.4365      25.6584         0.6029      25.4920
 Sum       30.2693        1.8336      28.4357        -0.7561      31.0254

 Contributions to Isotropic shielding for atom   30 (    32.4289 ppm):
                         Standard Origin              Atomic Origin
 NLMO      Total    Paramagnetic  Diamagnetic   Paramagnetic  Diamagnetic
   18      -0.1637       -0.3620       0.1983        -1.3675       1.2038
   23      -0.1506        0.0624      -0.2131        -1.1334       0.9828
   33       1.7286       -0.9999       2.7285         1.1573       0.5713
   35       0.6568        1.4026      -0.7458        -0.1639       0.8207
   36      26.0506        0.2769      25.7737         0.4393      25.6112
   37       2.0382        1.4552       0.5830         0.2522       1.7860
   39       0.0433       -1.3075       1.3508        -1.0821       1.1254
 Sum       30.2032        0.5277      29.6755        -1.8980      32.1013

 Contributions to Isotropic shielding for atom   31 (    31.8162 ppm):
                         Standard Origin              Atomic Origin
 NLMO      Total    Paramagnetic  Diamagnetic   Paramagnetic  Diamagnetic
   31      -0.0796        0.4451      -0.5247        -1.0797       1.0001
   33       1.5138       -0.2515       1.7653         0.7082       0.8056
   34      -0.0340        0.3108      -0.3448        -1.1287       1.0946
   35       0.4867        2.1831      -1.6964        -0.3808       0.8675
   36       2.0348        1.0605       0.9743         0.1778       1.8571
   37      26.0922       -0.1052      26.1973         0.4013      25.6908
   38       0.2735       -0.7290       1.0025        -0.1234       0.3969
   40       0.0160       -1.2475       1.2634        -1.1341       1.1501
 Sum       30.3033        1.6664      28.6369        -2.5594      32.8627

 Contributions to Isotropic shielding for atom   32 (    31.9500 ppm):
                         Standard Origin              Atomic Origin
 NLMO      Total    Paramagnetic  Diamagnetic   Paramagnetic  Diamagnetic
   31      -0.2129        0.2759      -0.4887        -1.0616       0.8487
   32       0.3143       -0.7028       1.0171         0.0692       0.2451
   35       1.4804       -0.9849       2.4653         0.6025       0.8778
   36      -0.0750        0.3380      -0.4129        -1.1598       1.0849
   38       1.0159        0.1844       0.8315         0.2379       0.7780
   39      26.3234        0.1352      26.1882         0.4551      25.8683
   40       1.9017        2.8454      -0.9436         0.0953       1.8064
   41      -0.1323       -0.3627       0.2304        -1.2915       1.1593
 Sum       30.6156        1.7283      28.8872        -2.0528      32.6684

 Contributions to Isotropic shielding for atom   33 (    31.8239 ppm):
                         Standard Origin              Atomic Origin
 NLMO      Total    Paramagnetic  Diamagnetic   Paramagnetic  Diamagnetic
   31      -0.1158        0.1540      -0.2698        -1.0317       0.9159
   35       1.1792        0.3720       0.8072         0.2944       0.8847
   37      -0.1113        0.8551      -0.9663        -1.3002       1.1889
   38       0.7483        1.5688      -0.8206        -0.0200       0.7682
   39       2.0173        2.3457      -0.3283         0.2490       1.7684
   40      26.2640       -0.3009      26.5648         0.5513      25.7127
   42      -0.0558        0.0048      -0.0606        -1.2215       1.1657
 Sum       29.9259        4.9995      24.9264        -2.4786      32.4045

 Contributions to Isotropic shielding for atom   34 (    32.0285 ppm):
                         Standard Origin              Atomic Origin
 NLMO      Total    Paramagnetic  Diamagnetic   Paramagnetic  Diamagnetic
   28      -0.2673        0.3736      -0.6409        -1.0437       0.7765
   32       1.5197       -1.4714       2.9911         0.8899       0.6298
   35       0.2977       -0.7832       1.0810        -0.0335       0.3312
   39      -0.0836       -0.7321       0.6484        -1.2455       1.1618
   41      26.7218        0.4495      26.2723         0.6976      26.0242
   42       1.6690        2.2236      -0.5546        -0.2023       1.8714
 Sum       29.8574        0.0600      29.7974        -0.9375      30.7949

 Contributions to Isotropic shielding for atom   35 (    31.5099 ppm):
                         Standard Origin              Atomic Origin
 NLMO      Total    Paramagnetic  Diamagnetic   Paramagnetic  Diamagnetic
   32       1.0666        0.5167       0.5500        -0.1406       1.2073
   38       0.4019        1.7793      -1.3774        -0.4911       0.8930
   40       0.0019       -0.0670       0.0689        -1.1244       1.1263
   41       1.6196        1.5694       0.0501        -0.1004       1.7199
   42      26.3417        0.0570      26.2847         0.7700      25.5717
 Sum       29.4317        3.8554      25.5763        -1.0865      30.5182

 Contributions to Isotropic shielding for atom   36 (    30.8589 ppm):
                         Standard Origin              Atomic Origin
 NLMO      Total    Paramagnetic  Diamagnetic   Paramagnetic  Diamagnetic
    2      -0.8243       -0.3806      -0.4437        -1.7328       0.9085
    4       1.8026       -0.4437       2.2463         0.9291       0.8735
    8       0.5568       -0.1352       0.6920        -0.5266       1.0834
   15      -0.3426        0.1890      -0.5316        -1.2441       0.9015
   18       0.1683        0.2256      -0.0574        -1.1771       1.3454
   43      25.6922        0.2054      25.4868         0.3566      25.3357
   44       1.7863        2.6877      -0.9014        -0.0950       1.8813
   45       2.2313        0.3607       1.8706         0.4119       1.8194
 Sum       31.0705        2.7090      28.3616        -3.0781      34.1486

 Contributions to Isotropic shielding for atom   37 (    30.9954 ppm):
                         Standard Origin              Atomic Origin
 NLMO      Total    Paramagnetic  Diamagnetic   Paramagnetic  Diamagnetic
    1      -1.0043        0.2303      -1.2346        -1.9158       0.9116
    2      -0.7281        0.1140      -0.8421        -2.3387       1.6106
    4       1.0581        0.7357       0.3224         0.3000       0.7581
    6      -0.0197       -1.3022       1.2824        -0.9558       0.9361
   18       0.0732        0.0881      -0.0149        -0.9367       1.0099
   43       2.0761        2.5016      -0.4255         0.0930       1.9831
   44      26.2597       -0.1394      26.3991         0.5239      25.7359
   45       2.0736        1.9543       0.1193         0.1037       1.9699
 Sum       29.7887        4.1824      25.6063        -5.1265      34.9152

 Contributions to Isotropic shielding for atom   38 (    31.1517 ppm):
                         Standard Origin              Atomic Origin
 NLMO      Total    Paramagnetic  Diamagnetic   Paramagnetic  Diamagnetic
    2      -0.7614       -0.5317      -0.2297        -1.6673       0.9059
    4       1.9013       -0.9493       2.8507         1.0329       0.8685
    8       0.5152       -0.2232       0.7384        -0.5761       1.0913
   15      -0.2769        0.1939      -0.4708        -1.1887       0.9118
   18       0.0727        0.0870      -0.0143        -1.2213       1.2940
   43       2.1849        0.5132       1.6717         0.3766       1.8083
   44       1.7968        2.2763      -0.4796        -0.0823       1.8790
   45      25.7297        0.2876      25.4422         0.3514      25.3783
 Sum       31.1624        1.6538      29.5085        -2.9747      34.1371
 
 1\1\GINC-GNOSIE-MM\SP\RHF\STO-3G\C16H19N1O2\MBENIDD\30-Apr-2026\0\\# n
 mr=giao hf/sto-3g pop=nbo\\Title Card Required\\0,1\C,0,0.,0.,0.\C,0,1
 .4072,0.,0.\C,0,2.1264,1.194,0.\C,0,1.4498,2.4083,0.0105\C,0,0.0551,2.
 4306,0.0315\C,0,-0.6775,1.2367,0.0091\C,0,-2.1536,1.3462,-0.0381\O,0,-
 0.5032,3.6802,0.0395\C,0,-1.8428,3.7087,0.5452\C,0,-2.7483,2.7264,-0.1
 849\C,0,-2.3707,5.1326,0.3663\C,0,-2.5528,5.4738,-1.1148\N,0,-3.3409,4
 .5,-1.8641\C,0,-2.92,3.1028,-1.667\C,0,-4.068,2.3635,-2.3541\C,0,-5.30
 6,3.2099,-2.0817\C,0,-4.7805,4.5623,-1.616\O,0,-2.8799,0.3565,0.0199\C
 ,0,-0.7077,-1.3278,-0.0219\H,0,-3.7191,2.7166,0.3293\H,0,-1.8044,3.482
 1,1.6199\H,0,-1.9912,2.911,-2.2184\H,0,1.9563,-0.9404,-0.009\H,0,3.213
 4,1.1758,-0.0093\H,0,2.0082,3.3411,0.0094\H,0,-3.3215,5.2453,0.9\H,0,-
 1.6652,5.849,0.8042\H,0,-2.9966,6.4722,-1.2118\H,0,-1.565,5.5468,-1.58
 74\H,0,-4.2,1.3314,-2.0189\H,0,-3.8901,2.3323,-3.4372\H,0,-5.9233,2.75
 12,-1.3013\H,0,-5.9173,3.3003,-2.9859\H,0,-5.0224,4.6994,-0.556\H,0,-5
 .2425,5.3821,-2.1756\H,0,-1.3242,-1.4489,0.8742\H,0,0.0037,-2.1611,-0.
 0344\H,0,-1.3229,-1.4206,-0.9224\\Version=EM64L-G16RevB.01\State=1-A\H
 F=-811.0617193\RMSD=7.487e-09\Dipole=-0.0020973,0.1929716,0.4128459\Qu
 adrupole=2.2228496,-1.0487873,-1.1740623,-4.2026762,-0.4629706,2.71044
 96\PG=C01 [X(C16H19N1O2)]\\@


 THE PROBLEM WITH THE LADDER OF SUCCESS IS YOU CAN'T
 CLIMB IT WHILE YOU'RE TWIDDLING YOUR THUMBS.
 Job cpu time:       0 days  0 hours  3 minutes 43.7 seconds.
 Elapsed time:       0 days  0 hours  1 minutes 59.0 seconds.
 File lengths (MBytes):  RWF=     14 Int=      0 D2E=      0 Chk=      2 Scr=      1
 Normal termination of Gaussian 16 at Thu Apr 30 09:24:32 2026.
