 Entering Gaussian System, Link 0=g16
 Input=2_isoelaeocarpine_c_3.gjf
 Output=2_isoelaeocarpine_c_3.log
 Initial command:
 /opt/gaussian/g16/l1.exe "/home/mbenidd/Bureau/Elaeocarpines/HF_NMR/Isoelaeocarpine/2_isoelaeocarpine_c_3/Gau-12974.inp" -scrdir="/home/mbenidd/Bureau/Elaeocarpines/HF_NMR/Isoelaeocarpine/2_isoelaeocarpine_c_3/"
 Entering Link 1 = /opt/gaussian/g16/l1.exe PID=     12976.
  
 Copyright (c) 1988-2017, Gaussian, Inc.  All Rights Reserved.
  
 This is part of the Gaussian(R) 16 program.  It is based on
 the Gaussian(R) 09 system (copyright 2009, Gaussian, Inc.),
 the Gaussian(R) 03 system (copyright 2003, Gaussian, Inc.),
 the Gaussian(R) 98 system (copyright 1998, Gaussian, Inc.),
 the Gaussian(R) 94 system (copyright 1995, Gaussian, Inc.),
 the Gaussian 92(TM) system (copyright 1992, Gaussian, Inc.),
 the Gaussian 90(TM) system (copyright 1990, Gaussian, Inc.),
 the Gaussian 88(TM) system (copyright 1988, Gaussian, Inc.),
 the Gaussian 86(TM) system (copyright 1986, Carnegie Mellon
 University), and the Gaussian 82(TM) system (copyright 1983,
 Carnegie Mellon University). Gaussian is a federally registered
 trademark of Gaussian, Inc.
  
 This software contains proprietary and confidential information,
 including trade secrets, belonging to Gaussian, Inc.
  
 This software is provided under written license and may be
 used, copied, transmitted, or stored only in accord with that
 written license.
  
 The following legend is applicable only to US Government
 contracts under FAR:
  
                    RESTRICTED RIGHTS LEGEND
  
 Use, reproduction and disclosure by the US Government is
 subject to restrictions as set forth in subparagraphs (a)
 and (c) of the Commercial Computer Software - Restricted
 Rights clause in FAR 52.227-19.
  
 Gaussian, Inc.
 340 Quinnipiac St., Bldg. 40, Wallingford CT 06492
  
  
 ---------------------------------------------------------------
 Warning -- This program may not be used in any manner that
 competes with the business of Gaussian, Inc. or will provide
 assistance to any competitor of Gaussian, Inc.  The licensee
 of this program is prohibited from giving any competitor of
 Gaussian, Inc. access to this program.  By using this program,
 the user acknowledges that Gaussian, Inc. is engaged in the
 business of creating and licensing software in the field of
 computational chemistry and represents and warrants to the
 licensee that it is not a competitor of Gaussian, Inc. and that
 it will not use this program in any manner prohibited above.
 ---------------------------------------------------------------
  

 Cite this work as:
 Gaussian 16, Revision B.01,
 M. J. Frisch, G. W. Trucks, H. B. Schlegel, G. E. Scuseria, 
 M. A. Robb, J. R. Cheeseman, G. Scalmani, V. Barone, 
 G. A. Petersson, H. Nakatsuji, X. Li, M. Caricato, A. V. Marenich, 
 J. Bloino, B. G. Janesko, R. Gomperts, B. Mennucci, H. P. Hratchian, 
 J. V. Ortiz, A. F. Izmaylov, J. L. Sonnenberg, D. Williams-Young, 
 F. Ding, F. Lipparini, F. Egidi, J. Goings, B. Peng, A. Petrone, 
 T. Henderson, D. Ranasinghe, V. G. Zakrzewski, J. Gao, N. Rega, 
 G. Zheng, W. Liang, M. Hada, M. Ehara, K. Toyota, R. Fukuda, 
 J. Hasegawa, M. Ishida, T. Nakajima, Y. Honda, O. Kitao, H. Nakai, 
 T. Vreven, K. Throssell, J. A. Montgomery, Jr., J. E. Peralta, 
 F. Ogliaro, M. J. Bearpark, J. J. Heyd, E. N. Brothers, K. N. Kudin, 
 V. N. Staroverov, T. A. Keith, R. Kobayashi, J. Normand, 
 K. Raghavachari, A. P. Rendell, J. C. Burant, S. S. Iyengar, 
 J. Tomasi, M. Cossi, J. M. Millam, M. Klene, C. Adamo, R. Cammi, 
 J. W. Ochterski, R. L. Martin, K. Morokuma, O. Farkas, 
 J. B. Foresman, and D. J. Fox, Gaussian, Inc., Wallingford CT, 2016.
 
 ******************************************
 Gaussian 16:  EM64L-G16RevB.01 20-Dec-2017
                30-Apr-2026 
 ******************************************
 %nprocshared=4
 Will use up to    4 processors via shared memory.
 ----------------------------
 # nmr=giao hf/sto-3g pop=nbo
 ----------------------------
 1/38=1,172=1/1;
 2/12=2,17=6,18=5,40=1/2;
 3/6=3,11=9,25=1,30=1/1,2,3,8;
 4//1;
 5/5=2,38=5/2;
 8/6=1,10=90,11=11/1;
 10/13=100,45=16/2;
 6/7=2,8=2,9=2,10=2,28=1,40=1,64=1/1,7;
 99/9=1/99;
 -------------------
 Title Card Required
 -------------------
 Symbolic Z-matrix:
 Charge =  0 Multiplicity = 1
 C                     0.        0.        0. 
 C                     1.4074    0.        0. 
 C                     2.1261    1.194     0. 
 C                     1.4482    2.4073    0.0106 
 C                     0.0534    2.4286    0.0306 
 C                    -0.6788    1.2367    0.0043 
 C                    -2.1529    1.346    -0.0579 
 O                    -0.5065    3.6754    0.0364 
 C                    -1.8215    3.7179    0.6081 
 C                    -2.7637    2.7264   -0.0621 
 C                    -2.3135    5.1692    0.4647 
 C                    -3.6422    5.2822   -0.2824 
 N                    -3.5845    4.5826   -1.563 
 C                    -3.1044    3.1835   -1.4828 
 C                    -4.187     2.3453   -2.166 
 C                    -4.8538    3.3336   -3.1013 
 C                    -4.8733    4.5975   -2.2652 
 O                    -2.8722    0.3513   -0.1301 
 C                    -0.706    -1.3289   -0.0194 
 H                    -3.6776    2.6655    0.5457 
 H                    -1.7231    3.4858    1.6781 
 H                    -2.2027    3.1283   -2.1083 
 H                     1.9567   -0.9403   -0.0089 
 H                     3.2131    1.1768   -0.0094 
 H                     2.0052    3.3411    0.0093 
 H                    -2.4424    5.6028    1.4643 
 H                    -1.5589    5.7864   -0.0401 
 H                    -4.4482    4.8876    0.3503 
 H                    -3.8625    6.3431   -0.4512 
 H                    -4.9206    1.9743   -1.4397 
 H                    -3.7735    1.4891   -2.7079 
 H                    -5.8553    3.0122   -3.4008 
 H                    -4.248     3.4744   -4.0046 
 H                    -5.7171    4.551    -1.5648 
 H                    -4.9842    5.4939   -2.8827 
 H                    -1.3663   -1.4265    0.848 
 H                     0.005    -2.1611    0.0296 
 H                    -1.2753   -1.4473   -0.9465 
 
                          Input orientation:                          
 ---------------------------------------------------------------------
 Center     Atomic      Atomic             Coordinates (Angstroms)
 Number     Number       Type             X           Y           Z
 ---------------------------------------------------------------------
      1          6           0        0.000000    0.000000    0.000000
      2          6           0        1.407400    0.000000    0.000000
      3          6           0        2.126100    1.194000    0.000000
      4          6           0        1.448200    2.407300    0.010600
      5          6           0        0.053400    2.428600    0.030600
      6          6           0       -0.678800    1.236700    0.004300
      7          6           0       -2.152900    1.346000   -0.057900
      8          8           0       -0.506500    3.675400    0.036400
      9          6           0       -1.821500    3.717900    0.608100
     10          6           0       -2.763700    2.726400   -0.062100
     11          6           0       -2.313500    5.169200    0.464700
     12          6           0       -3.642200    5.282200   -0.282400
     13          7           0       -3.584500    4.582600   -1.563000
     14          6           0       -3.104400    3.183500   -1.482800
     15          6           0       -4.187000    2.345300   -2.166000
     16          6           0       -4.853800    3.333600   -3.101300
     17          6           0       -4.873300    4.597500   -2.265200
     18          8           0       -2.872200    0.351300   -0.130100
     19          6           0       -0.706000   -1.328900   -0.019400
     20          1           0       -3.677600    2.665500    0.545700
     21          1           0       -1.723100    3.485800    1.678100
     22          1           0       -2.202700    3.128300   -2.108300
     23          1           0        1.956700   -0.940300   -0.008900
     24          1           0        3.213100    1.176800   -0.009400
     25          1           0        2.005200    3.341100    0.009300
     26          1           0       -2.442400    5.602800    1.464300
     27          1           0       -1.558900    5.786400   -0.040100
     28          1           0       -4.448200    4.887600    0.350300
     29          1           0       -3.862500    6.343100   -0.451200
     30          1           0       -4.920600    1.974300   -1.439700
     31          1           0       -3.773500    1.489100   -2.707900
     32          1           0       -5.855300    3.012200   -3.400800
     33          1           0       -4.248000    3.474400   -4.004600
     34          1           0       -5.717100    4.551000   -1.564800
     35          1           0       -4.984200    5.493900   -2.882700
     36          1           0       -1.366300   -1.426500    0.848000
     37          1           0        0.005000   -2.161100    0.029600
     38          1           0       -1.275300   -1.447300   -0.946500
 ---------------------------------------------------------------------
                    Distance matrix (angstroms):
                    1          2          3          4          5
     1  C    0.000000
     2  C    1.407400   0.000000
     3  C    2.438429   1.393616   0.000000
     4  C    2.809357   2.407669   1.389877   0.000000
     5  C    2.429380   2.780710   2.412728   1.395106   0.000000
     6  C    1.410750   2.425217   2.805228   2.427854   1.399083
     7  C    2.539694   3.806679   4.282090   3.754860   2.459190
     8  O    3.710314   4.144020   3.617907   2.330149   1.366760
     9  C    4.184546   4.961689   4.724765   3.572900   2.347563
    10  C    3.882673   4.983492   5.124671   4.224596   2.834313
    11  C    5.682328   6.386053   5.977308   4.688783   3.647129
    12  C    6.422383   7.312992   7.075762   5.853467   4.679579
    13  N    6.024270   6.954298   6.821769   5.704053   4.518140
    14  C    4.687288   5.717491   5.789209   4.853751   3.582172
    15  C    5.265259   6.441219   6.772908   6.041267   4.776294
    16  C    6.655098   7.741678   7.931895   7.089228   5.891386
    17  C    7.072283   8.106499   8.105957   7.066654   5.852111
    18  O    2.896527   4.295965   5.070510   4.786730   3.591676
    19  C    1.504921   2.496560   3.792913   4.312849   3.833796
    20  H    4.574650   5.767140   6.012157   5.160119   3.773832
    21  H    4.235079   4.976631   4.783796   3.741773   2.643460
    22  H    4.368418   5.221495   5.188926   4.282365   3.186606
    23  H    2.170926   1.089024   2.141031   3.386056   3.869573
    24  H    3.421836   2.155342   1.087177   2.151605   3.398869
    25  H    3.896648   3.394172   2.150521   1.087305   2.154677
    26  H    6.284971   6.953884   6.515588   5.240347   4.284864
    27  H    5.992846   6.502536   5.888206   4.523664   3.725497
    28  H    6.617993   7.635404   7.548961   6.405842   5.139386
    29  H    7.440256   8.258955   7.910761   6.626260   5.557852
    30  H    5.493897   6.783375   7.234472   6.546180   5.206616
    31  H    4.877442   6.032567   6.498083   5.958144   4.798667
    32  H    7.411027   8.566540   8.864200   8.083605   6.857684
    33  H    6.793657   7.751892   7.865507   7.050335   5.989873
    34  H    7.472980   8.597599   8.673744   7.643223   6.352051
    35  H    7.958338   8.907606   8.795196   7.698964   6.577294
    36  H    2.149600   3.232247   4.447806   4.829148   4.188733
    37  H    2.161308   2.576423   3.969463   4.790978   4.589955
    38  H    2.148704   3.191774   4.409291   4.815749   4.212217
                    6          7          8          9         10
     6  C    0.000000
     7  C    1.479455   0.000000
     8  O    2.444990   2.854055   0.000000
     9  C    2.797622   2.485818   1.434529   0.000000
    10  C    2.563284   1.509503   2.450562   1.523148   0.000000
    11  C    4.283546   3.862093   2.383302   1.539123   2.539187
    12  C    5.022948   4.214509   3.537804   2.560268   2.711532
    13  N    4.700486   3.845827   3.585412   2.927379   2.524261
    14  C    3.447467   2.512389   3.049429   2.510633   1.530819
    15  C    4.271611   3.095198   4.490636   3.895543   2.568543
    16  C    5.610024   4.528543   5.372244   4.806473   3.738174
    17  C    5.834333   4.779645   5.021611   4.282877   3.578418
    18  O    2.369177   1.229648   4.083369   3.603180   2.378549
    19  C    2.565854   3.041396   5.008586   5.206562   4.547682
    20  H    3.365618   2.104786   3.366773   2.134607   1.099246
    21  H    2.991759   2.788757   2.052131   1.099297   2.165140
    22  H    3.219239   2.717207   2.788575   2.805668   2.159440
    23  H    3.418386   4.703018   5.232026   6.029454   5.977432
    24  H    3.892385   5.368886   4.481130   5.673244   6.174640
    25  H    3.410628   4.612454   2.533994   3.891551   4.808884
    26  H    4.929981   4.530039   3.082447   2.161352   3.272126
    27  H    4.634255   4.479989   2.360025   2.183533   3.288712
    28  H    5.259008   4.240042   4.135814   2.886904   2.770993
    29  H    6.034795   5.296076   4.314755   3.489910   3.799905
    30  H    4.541152   3.156627   4.955491   4.103419   2.667518
    31  H    4.122730   3.109553   4.794203   4.446764   3.090447
    32  H    6.445406   5.259179   6.392483   5.730692   4.559231
    33  H    5.815305   4.949341   5.510799   5.217681   4.278546
    34  H    6.231463   5.024569   5.520948   4.537758   3.782835
    35  H    6.707830   5.762016   5.646050   5.034137   4.532710
    36  H    2.876998   3.020952   5.237111   5.170069   4.475219
    37  H    3.466016   4.118730   5.858875   6.183317   5.617986
    38  H    2.909242   3.059790   5.272495   5.421661   4.518547
                   11         12         13         14         15
    11  C    0.000000
    12  C    1.528519   0.000000
    13  N    2.463962   1.460379   0.000000
    14  C    2.891588   2.476839   1.481354   0.000000
    15  C    4.290104   3.531308   2.394186   1.530152   0.000000
    16  C    4.747516   3.634723   2.353187   2.387985   1.515304
    17  C    3.785733   2.432266   1.467758   2.395945   2.356534
    18  O    4.886522   4.992982   4.523768   3.147232   3.138411
    19  C    6.711461   7.238583   6.753836   5.315601   5.497727
    20  H    2.852340   2.744835   2.851413   2.170644   2.777649
    21  H    2.157486   3.279262   3.895191   3.462754   4.706235
    22  H    3.286013   3.169441   2.078873   1.098799   2.133979
    23  H    7.468929   8.375081   7.976374   6.692745   7.293374
    24  H    6.834277   7.995247   7.760188   6.790328   7.796012
    25  H    4.711742   5.978803   5.937861   5.325337   6.638290
    26  H    1.097189   2.143190   3.392602   3.869968   5.180156
    27  H    1.097807   2.157097   2.805604   3.353363   4.823643
    28  H    2.156231   1.098023   2.121254   2.840776   3.586542
    29  H    2.148561   1.096601   2.100653   3.409103   4.362138
    30  H    4.542147   3.730396   2.933189   2.182339   1.096960
    31  H    5.073473   4.504209   3.303976   2.195349   1.094402
    32  H    5.669135   4.446924   3.316655   3.357904   2.180071
    33  H    5.156479   4.182094   2.762200   2.784227   2.158480
    34  H    4.010678   2.546451   2.132835   2.950082   2.750956
    35  H    4.294549   2.933827   2.128670   3.291097   3.326089
    36  H    6.674381   7.173854   6.844166   5.450295   5.591692
    37  H    7.700523   8.294705   7.803741   6.365569   6.534613
    38  H    6.844517   7.164455   6.486306   5.007747   4.934470
                   16         17         18         19         20
    16  C    0.000000
    17  C    1.515548   0.000000
    18  O    4.652836   5.156866   0.000000
    19  C    6.959975   7.585000   2.743674   0.000000
    20  H    3.889783   3.614344   2.541829   5.010487   0.000000
    21  H    5.715515   5.168099   3.796723   5.205510   2.403184
    22  H    2.838402   3.052093   3.474656   5.144924   3.071356
    23  H    8.614643   9.077831   5.000120   2.690928   6.712281
    24  H    8.904297   9.065301   6.142222   4.651664   7.071500
    25  H    7.531386   7.352935   5.722532   5.400030   5.747902
    26  H    5.639931   4.563888   5.505006   7.298282   3.316214
    27  H    5.122845   4.165309   5.592242   7.166265   3.817338
    28  H    3.806963   2.665653   4.826238   7.265371   2.360028
    29  H    4.130714   2.712827   6.081568   8.307197   3.814805
    30  H    2.147807   2.750430   2.923204   5.539967   2.442257
    31  H    2.173475   3.326814   2.958375   4.957692   3.461073
    32  H    1.093618   2.183366   5.164954   7.536200   4.520779
    33  H    1.096708   2.162838   5.163170   7.176299   4.656705
    34  H    2.142004   1.097598   5.271556   7.878617   3.488392
    35  H    2.175244   1.094138   6.203522   8.547051   4.632599
    36  H    7.100576   7.634110   2.526853   1.094488   4.709348
    37  H    7.975099   8.645380   3.823080   1.095664   6.092944
    38  H    6.348687   7.157107   2.539992   1.094365   4.991275
                   21         22         23         24         25
    21  H    0.000000
    22  H    3.833360   0.000000
    23  H    5.998105   6.185596   0.000000
    24  H    5.704841   6.127367   2.461839   0.000000
    25  H    4.087304   4.715500   4.281713   2.478622   0.000000
    26  H    2.246061   4.352479   8.020883   7.331163   5.197447
    27  H    2.876097   3.428910   7.590053   6.634858   4.322585
    28  H    3.339800   3.765916   8.666960   8.520266   6.644871
    29  H    4.156334   3.979429   9.333093   8.772113   6.607115
    30  H    4.714797   3.027494   7.605218   8.296918   7.206556
    31  H    5.237170   2.348172   6.783935   7.496133   6.648793
    32  H    6.564648   3.876277   9.389067   9.854246   8.574638
    33  H    6.218386   2.810514   8.599622   8.769755   7.431801
    34  H    5.253864   3.830206   9.563598   9.672278   7.973429
    35  H    5.955513   3.732627   9.891094   9.699945   7.864472
    36  H    4.994704   5.494131   3.465977   5.336966   5.899190
    37  H    6.131179   6.117378   2.302383   4.629795   5.854521
    38  H    5.605758   4.811025   3.403229   5.282972   5.882517
                   26         27         28         29         30
    26  H    0.000000
    27  H    1.754281   0.000000
    28  H    2.403277   3.050952   0.000000
    29  H    2.496772   2.405305   1.761797   0.000000
    30  H    5.266944   5.271813   3.451750   4.602512   0.000000
    31  H    6.008461   5.521630   4.621429   5.353684   1.777523
    32  H    6.482923   6.119603   4.423551   4.875068   2.407657
    33  H    6.139963   5.319198   4.582834   4.583089   3.046539
    34  H    4.583164   4.597994   2.321856   2.809140   2.699897
    35  H    5.036766   4.460786   3.332744   2.809189   3.804455
    36  H    7.137848   7.269920   7.043697   8.263511   5.425132
    37  H    8.265971   8.100210   8.343741   9.354686   6.597114
    38  H    7.541750   7.295780   7.202773   8.223701   5.023824
                   31         32         33         34         35
    31  H    0.000000
    32  H    2.670924   0.000000
    33  H    2.418263   1.778094   0.000000
    34  H    3.802564   2.399563   3.044659   0.000000
    35  H    4.187454   2.680686   2.424671   1.778500   0.000000
    36  H    5.190353   7.609565   7.474673   7.776990   8.654436
    37  H    5.924097   8.536615   8.131521   8.963081   9.590236
    38  H    4.238629   6.847418   6.512454   7.489425   8.104632
                   36         37         38
    36  H    0.000000
    37  H    1.757805   0.000000
    38  H    1.796926   1.761093   0.000000
 Stoichiometry    C16H19NO2
 Framework group  C1[X(C16H19NO2)]
 Deg. of freedom   108
 Full point group                 C1      NOp   1
 Largest Abelian subgroup         C1      NOp   1
 Largest concise Abelian subgroup C1      NOp   1
                         Standard orientation:                         
 ---------------------------------------------------------------------
 Center     Atomic      Atomic             Coordinates (Angstroms)
 Number     Number       Type             X           Y           Z
 ---------------------------------------------------------------------
      1          6           0       -3.004841    0.856854    0.056768
      2          6           0       -4.077098    0.150485   -0.519499
      3          6           0       -3.917954   -1.160923   -0.963398
      4          6           0       -2.686147   -1.790332   -0.828293
      5          6           0       -1.616145   -1.114003   -0.241781
      6          6           0       -1.756841    0.211394    0.183616
      7          6           0       -0.552708    0.885223    0.717287
      8          8           0       -0.453147   -1.827687   -0.163527
      9          6           0        0.423439   -1.394665    0.886215
     10          6           0        0.730775    0.094088    0.790603
     11          6           0        1.695003   -2.254854    0.776211
     12          6           0        2.970763   -1.425573    0.630951
     13          7           0        2.849684   -0.464881   -0.462262
     14          6           0        1.634712    0.381068   -0.411039
     15          6           0        2.143169    1.822617   -0.480123
     16          6           0        3.482237    1.686332   -1.176161
     17          6           0        4.025168    0.407316   -0.570991
     18          8           0       -0.574436    2.062635    1.071211
     19          6           0       -3.248401    2.275853    0.494840
     20          1           0        1.231076    0.395934    1.721694
     21          1           0       -0.070447   -1.620714    1.841951
     22          1           0        1.079646    0.183766   -1.338581
     23          1           0       -5.049794    0.626493   -0.634622
     24          1           0       -4.753815   -1.689613   -1.414814
     25          1           0       -2.557472   -2.812966   -1.174551
     26          1           0        1.786826   -2.873088    1.677976
     27          1           0        1.618227   -2.954485   -0.066286
     28          1           0        3.184798   -0.920592    1.582181
     29          1           0        3.810941   -2.102700    0.435667
     30          1           0        2.291384    2.240850    0.523090
     31          1           0        1.463958    2.479877   -1.031845
     32          1           0        4.133827    2.546065   -0.996470
     33          1           0        3.341712    1.575327   -2.258150
     34          1           0        4.456220    0.631232    0.413274
     35          1           0        4.802697   -0.042159   -1.195938
     36          1           0       -3.031339    2.391942    1.561288
     37          1           0       -4.295544    2.565073    0.352285
     38          1           0       -2.640803    2.969048   -0.095025
 ---------------------------------------------------------------------
 Rotational constants (GHZ):           0.7450301           0.2783211           0.2278449
 Standard basis: STO-3G (5D, 7F)
 There are   114 symmetry adapted cartesian basis functions of A   symmetry.
 There are   114 symmetry adapted basis functions of A   symmetry.
   114 basis functions,   342 primitive gaussians,   114 cartesian basis functions
    69 alpha electrons       69 beta electrons
       nuclear repulsion energy      1495.8748144385 Hartrees.
 NAtoms=   38 NActive=   38 NUniq=   38 SFac= 1.00D+00 NAtFMM=   60 NAOKFM=F Big=F
 Integral buffers will be    131072 words long.
 Raffenetti 1 integral format.
 Two-electron integral symmetry is turned on.
 One-electron integrals computed using PRISM.
 NBasis=   114 RedAO= T EigKep=  1.73D-01  NBF=   114
 NBsUse=   114 1.00D-06 EigRej= -1.00D+00 NBFU=   114
 ExpMin= 1.69D-01 ExpMax= 1.31D+02 ExpMxC= 1.31D+02 IAcc=3 IRadAn=         5 AccDes= 0.00D+00
 Harris functional with IExCor=  205 and IRadAn=       5 diagonalized for initial guess.
 HarFok:  IExCor=  205 AccDes= 0.00D+00 IRadAn=         5 IDoV= 1 UseB2=F ITyADJ=14
 ICtDFT=  3500011 ScaDFX=  1.000000  1.000000  1.000000  1.000000
 FoFCou: FMM=F IPFlag=           0 FMFlag=      100000 FMFlg1=           0
         NFxFlg=           0 DoJE=T BraDBF=F KetDBF=T FulRan=T
         wScrn=  0.000000 ICntrl=       500 IOpCl=  0 I1Cent=   200000004 NGrid=           0
         NMat0=    1 NMatS0=      1 NMatT0=    0 NMatD0=    1 NMtDS0=    0 NMtDT0=    0
 Petite list used in FoFCou.
 Requested convergence on RMS density matrix=1.00D-08 within 128 cycles.
 Requested convergence on MAX density matrix=1.00D-06.
 Requested convergence on             energy=1.00D-06.
 No special actions if energy rises.
 Integral accuracy reduced to 1.0D-05 until final iterations.
 Initial convergence to 1.0D-05 achieved.  Increase integral accuracy.
 SCF Done:  E(RHF) =  -811.056122785     A.U. after   17 cycles
            NFock= 17  Conv=0.73D-08     -V/T= 2.0093
 Range of M.O.s used for correlation:     1   114
 NBasis=   114 NAE=    69 NBE=    69 NFC=     0 NFV=     0
 NROrb=    114 NOA=    69 NOB=    69 NVA=    45 NVB=    45
          Differentiating once with respect to magnetic field using GIAOs.
          Electric field/nuclear overlap derivatives assumed to be zero.
 FoFCou: FMM=F IPFlag=           0 FMFlag=      100000 FMFlg1=           0
         NFxFlg=           0 DoJE=F BraDBF=F KetDBF=T FulRan=T
         wScrn=  0.000000 ICntrl=      6100 IOpCl=  0 I1Cent=           7 NGrid=          38
         NMat0=    1 NMatS0=      1 NMatT0=    0 NMatD0=    1 NMtDS0=    0 NMtDT0=    0
 Symmetry not used in FoFCou.
 FoFJK:  IHMeth= 1 ICntrl=    6127 DoSepK=F KAlg= 0 I1Cent=           0 FoldK=F
 IRaf=         1 NMat=       1 IRICut=       1 DoRegI=T DoRafI=F ISym2E= 0 IDoP0=0 IntGTp=1.
          There are     3 degrees of freedom in the 1st order CPHF.  IDoFFX=0 NUNeed=     3.
      3 vectors produced by pass  0 Test12= 1.04D-13 3.33D-08 XBig12= 2.48D+01 1.41D+00.
 AX will form     3 AO Fock derivatives at one time.
      3 vectors produced by pass  1 Test12= 1.04D-13 3.33D-08 XBig12= 1.54D-01 2.11D-01.
      3 vectors produced by pass  2 Test12= 1.04D-13 3.33D-08 XBig12= 3.76D-03 2.40D-02.
      3 vectors produced by pass  3 Test12= 1.04D-13 3.33D-08 XBig12= 1.21D-04 2.79D-03.
      3 vectors produced by pass  4 Test12= 1.04D-13 3.33D-08 XBig12= 1.51D-06 1.36D-04.
      3 vectors produced by pass  5 Test12= 1.04D-13 3.33D-08 XBig12= 1.71D-08 2.06D-05.
      3 vectors produced by pass  6 Test12= 1.04D-13 3.33D-08 XBig12= 3.27D-10 2.72D-06.
      3 vectors produced by pass  7 Test12= 1.04D-13 3.33D-08 XBig12= 4.87D-12 2.98D-07.
      1 vectors produced by pass  8 Test12= 1.04D-13 3.33D-08 XBig12= 8.09D-14 4.01D-08.
 InvSVY:  IOpt=1 It=  1 EMax= 8.88D-16
 Solved reduced A of dimension    25 with     3 vectors.
 Calculating GIAO nuclear magnetic shielding tensors.
 SCF GIAO Magnetic shielding tensor (ppm):
      1  C    Isotropic =   113.7436   Anisotropy =   169.7308
   XX=    87.1365   YX=    25.6943   ZX=   -31.5931
   XY=    30.5177   YY=    54.5065   ZY=   -53.5930
   XZ=   -29.5743   YZ=   -51.3695   ZZ=   199.5878
   Eigenvalues:    31.2854    83.0479   226.8975
      2  C    Isotropic =   123.8825   Anisotropy =   142.7238
   XX=    60.6183   YX=    44.0124   ZX=   -31.1452
   XY=    40.4147   YY=   110.9126   ZY=   -27.9461
   XZ=   -34.0169   YZ=   -23.4844   ZZ=   200.1167
   Eigenvalues:    35.0057   117.6101   219.0317
      3  C    Isotropic =   117.2124   Anisotropy =   168.5753
   XX=    64.6587   YX=   -19.1496   ZX=   -56.4626
   XY=   -20.2349   YY=    95.9943   ZY=   -56.4078
   XZ=   -58.5996   YZ=   -56.0004   ZZ=   190.9843
   Eigenvalues:    19.6545   102.3869   229.5960
      4  C    Isotropic =   131.2956   Anisotropy =   145.6212
   XX=   125.3667   YX=    16.2508   ZX=   -26.2660
   XY=    15.0514   YY=    68.3299   ZY=   -56.1890
   XZ=   -28.4540   YZ=   -50.3588   ZZ=   200.1902
   Eigenvalues:    49.0467   116.4637   228.3764
      5  C    Isotropic =   105.2885   Anisotropy =   132.9993
   XX=    64.6872   YX=    27.9606   ZX=   -31.8841
   XY=    16.6080   YY=    78.7390   ZY=   -36.2503
   XZ=   -30.3823   YZ=   -32.0386   ZZ=   172.4392
   Eigenvalues:    48.0434    73.8673   193.9546
      6  C    Isotropic =   131.5897   Anisotropy =   151.0212
   XX=    87.0210   YX=    -3.8530   ZX=   -41.9633
   XY=    -6.1620   YY=   103.1296   ZY=   -45.7957
   XZ=   -36.0961   YZ=   -50.9947   ZZ=   204.6184
   Eigenvalues:    62.4665   100.0320   232.2705
      7  C    Isotropic =    90.4659   Anisotropy =   141.7421
   XX=   -31.9382   YX=    12.4015   ZX=   -54.0607
   XY=    13.4097   YY=   138.6293   ZY=   -11.5491
   XZ=   -57.9388   YZ=   -14.2879   ZZ=   164.7066
   Eigenvalues:   -47.2223   133.6593   184.9607
      8  O    Isotropic =   339.8127   Anisotropy =    92.0206
   XX=   318.1030   YX=   -32.6288   ZX=   -58.6484
   XY=   -45.3166   YY=   328.9811   ZY=   -40.5961
   XZ=   -38.9851   YZ=    -0.2663   ZZ=   372.3539
   Eigenvalues:   260.9669   357.3114   401.1597
      9  C    Isotropic =   187.1873   Anisotropy =    45.2553
   XX=   195.5268   YX=     3.1846   ZX=    22.4158
   XY=     7.3807   YY=   176.2080   ZY=     7.0906
   XZ=    22.9716   YZ=     6.9924   ZZ=   189.8272
   Eigenvalues:   169.2138   174.9906   217.3575
     10  C    Isotropic =   210.0772   Anisotropy =    10.8451
   XX=   212.7739   YX=     1.4060   ZX=    -4.1431
   XY=    -2.1599   YY=   205.5458   ZY=    -6.0954
   XZ=    -4.1607   YZ=    -3.2401   ZZ=   211.9118
   Eigenvalues:   202.5189   210.4053   217.3072
     11  C    Isotropic =   216.2412   Anisotropy =    19.1740
   XX=   227.5309   YX=    -3.6702   ZX=     0.7959
   XY=    -4.0160   YY=   218.5357   ZY=     2.1034
   XZ=     3.1755   YZ=     0.6031   ZZ=   202.6570
   Eigenvalues:   202.3251   217.3747   229.0239
     12  C    Isotropic =   202.9107   Anisotropy =    37.1657
   XX=   191.1920   YX=     3.4580   ZX=     4.1769
   XY=     8.4258   YY=   212.6426   ZY=   -19.4834
   XZ=     1.1580   YZ=   -17.0555   ZZ=   204.8976
   Eigenvalues:   184.7119   196.3323   227.6879
     13  N    Isotropic =   297.7761   Anisotropy =    58.4875
   XX=   333.6980   YX=     0.7041   ZX=   -13.9612
   XY=    -0.9652   YY=   312.5771   ZY=   -32.7737
   XZ=   -14.2955   YZ=   -17.3011   ZZ=   247.0533
   Eigenvalues:   236.7188   319.8419   336.7678
     14  C    Isotropic =   196.5553   Anisotropy =    36.1805
   XX=   211.8453   YX=   -12.2401   ZX=    -7.7293
   XY=   -10.1527   YY=   205.9463   ZY=    -7.5518
   XZ=    -6.5638   YZ=    -0.9955   ZZ=   171.8743
   Eigenvalues:   169.5313   199.4590   220.6756
     15  C    Isotropic =   211.9801   Anisotropy =    27.4926
   XX=   218.3791   YX=     5.0814   ZX=    -7.7041
   XY=     7.7454   YY=   223.5885   ZY=    -5.4538
   XZ=   -16.5324   YZ=     0.7509   ZZ=   193.9728
   Eigenvalues:   188.9758   216.6561   230.3085
     16  C    Isotropic =   216.2894   Anisotropy =    16.2192
   XX=   224.3954   YX=    -3.9866   ZX=    -4.9060
   XY=    -3.9010   YY=   220.8414   ZY=    -6.3731
   XZ=    -9.7725   YZ=   -12.3011   ZZ=   203.6316
   Eigenvalues:   197.0181   224.7480   227.1023
     17  C    Isotropic =   196.4162   Anisotropy =    50.6433
   XX=   210.1114   YX=    19.3770   ZX=    -7.9624
   XY=    19.6948   YY=   205.7812   ZY=    -9.7461
   XZ=    -1.2342   YZ=   -15.9387   ZZ=   173.3560
   Eigenvalues:   168.7497   190.3204   230.1784
     18  O    Isotropic =  -361.9859   Anisotropy =  1285.3356
   XX=  -341.0520   YX=    57.2149   ZX=  -199.7253
   XY=    70.2921   YY= -1024.8143   ZY=  -444.2451
   XZ=  -213.6704   YZ=  -520.7554   ZZ=   279.9085
   Eigenvalues: -1183.8815  -396.9808   494.9045
     19  C    Isotropic =   218.0175   Anisotropy =    23.4679
   XX=   215.2135   YX=    -3.0760   ZX=     1.3832
   XY=    -3.3141   YY=   230.4715   ZY=     8.4937
   XZ=     0.5545   YZ=     8.1628   ZZ=   208.3676
   Eigenvalues:   205.1979   215.1918   233.6628
     20  H    Isotropic =    31.0082   Anisotropy =     9.7241
   XX=    28.8196   YX=     1.0436   ZX=     1.0045
   XY=     0.5602   YY=    29.1567   ZY=     3.4255
   XZ=     3.4152   YZ=     4.0459   ZZ=    35.0483
   Eigenvalues:    27.2839    28.2497    37.4909
     21  H    Isotropic =    31.0965   Anisotropy =    10.8073
   XX=    30.1164   YX=     1.0818   ZX=    -3.8904
   XY=    -0.0043   YY=    27.8124   ZY=    -2.7361
   XZ=    -1.8645   YZ=    -5.8662   ZZ=    35.3608
   Eigenvalues:    25.7327    29.2554    38.3014
     22  H    Isotropic =    31.5999   Anisotropy =     9.1986
   XX=    33.9165   YX=     2.2408   ZX=     5.3544
   XY=     3.7433   YY=    27.0033   ZY=    -1.7670
   XZ=     1.7581   YZ=     0.4372   ZZ=    33.8798
   Eigenvalues:    25.4218    31.6455    37.7322
     23  H    Isotropic =    25.8905   Anisotropy =     5.9842
   XX=    27.5009   YX=     0.7658   ZX=     2.0832
   XY=     0.8254   YY=    27.6157   ZY=     2.6616
   XZ=     1.8894   YZ=     2.7399   ZZ=    22.5550
   Eigenvalues:    21.0177    26.7739    29.8800
     24  H    Isotropic =    25.2666   Anisotropy =     3.7019
   XX=    26.9897   YX=    -0.7708   ZX=     1.3482
   XY=    -1.1473   YY=    26.4995   ZY=     1.5347
   XZ=     1.1872   YZ=     1.6747   ZZ=    22.3106
   Eigenvalues:    21.3592    26.7061    27.7345
     25  H    Isotropic =    25.6516   Anisotropy =     7.3596
   XX=    28.7870   YX=     0.9715   ZX=     3.0040
   XY=     0.6511   YY=    26.3193   ZY=     2.4839
   XZ=     2.6954   YZ=     2.8918   ZZ=    21.8485
   Eigenvalues:    19.9860    26.4108    30.5580
     26  H    Isotropic =    31.6412   Anisotropy =    15.3107
   XX=    28.7502   YX=    -1.6213   ZX=     0.9422
   XY=    -1.1336   YY=    33.8639   ZY=    -7.8456
   XZ=     1.1756   YZ=    -9.1490   ZZ=    32.3095
   Eigenvalues:    24.5486    28.5266    41.8483
     27  H    Isotropic =    30.9783   Anisotropy =    13.0980
   XX=    29.0736   YX=     0.0262   ZX=     0.7445
   XY=     0.2173   YY=    35.9416   ZY=     6.6841
   XZ=     0.4682   YZ=     6.6119   ZZ=    27.9197
   Eigenvalues:    24.1221    29.1026    39.7103
     28  H    Isotropic =    32.5208   Anisotropy =     9.8517
   XX=    31.6494   YX=     1.2433   ZX=     4.1116
   XY=     1.2702   YY=    29.5644   ZY=     0.0710
   XZ=     4.7385   YZ=     0.4377   ZZ=    36.3486
   Eigenvalues:    28.2625    30.2113    39.0886
     29  H    Isotropic =    31.4924   Anisotropy =    14.0781
   XX=    35.9354   YX=    -5.8196   ZX=    -0.9847
   XY=    -5.9895   YY=    33.8102   ZY=    -1.1890
   XZ=    -0.8957   YZ=    -1.9919   ZZ=    24.7318
   Eigenvalues:    24.0388    29.5606    40.8778
     30  H    Isotropic =    32.0263   Anisotropy =    10.8691
   XX=    28.8999   YX=     0.9972   ZX=    -0.8362
   XY=     1.8700   YY=    34.1005   ZY=     5.7780
   XZ=    -2.5355   YZ=     5.5404   ZZ=    33.0784
   Eigenvalues:    26.1368    30.6697    39.2723
     31  H    Isotropic =    32.6110   Anisotropy =    13.1882
   XX=    33.9033   YX=    -5.2237   ZX=     2.2870
   XY=    -3.8380   YY=    35.9005   ZY=    -5.3980
   XZ=    -0.1455   YZ=    -5.4015   ZZ=    28.0292
   Eigenvalues:    25.1169    31.3131    41.4031
     32  H    Isotropic =    32.3104   Anisotropy =    15.9525
   XX=    33.4946   YX=     7.3200   ZX=    -0.8281
   XY=     7.4206   YY=    36.9925   ZY=    -0.9818
   XZ=    -1.3095   YZ=    -1.0164   ZZ=    26.4441
   Eigenvalues:    26.2830    27.7029    42.9454
     33  H    Isotropic =    32.0700   Anisotropy =    14.1954
   XX=    28.0571   YX=     0.1569   ZX=    -1.6156
   XY=     0.6522   YY=    27.5565   ZY=    -2.9825
   XZ=    -2.4995   YZ=    -2.7937   ZZ=    40.5963
   Eigenvalues:    26.9444    27.7320    41.5336
     34  H    Isotropic =    32.2423   Anisotropy =    10.8349
   XX=    34.9159   YX=     2.1827   ZX=     5.5290
   XY=     2.7319   YY=    29.7217   ZY=     0.0747
   XZ=     5.4288   YZ=    -0.8739   ZZ=    32.0894
   Eigenvalues:    26.6693    30.5921    39.4656
     35  H    Isotropic =    31.4536   Anisotropy =    14.6454
   XX=    37.1560   YX=    -3.7382   ZX=    -6.6886
   XY=    -2.7288   YY=    28.8628   ZY=     0.2265
   XZ=    -5.8394   YZ=     1.0110   ZZ=    28.3419
   Eigenvalues:    24.8293    28.3142    41.2172
     36  H    Isotropic =    31.0068   Anisotropy =    10.6834
   XX=    28.9912   YX=    -1.5454   ZX=     2.2458
   XY=    -0.5865   YY=    28.8340   ZY=     3.5499
   XZ=     0.9460   YZ=     6.6916   ZZ=    35.1951
   Eigenvalues:    25.2044    29.6869    38.1290
     37  H    Isotropic =    30.9846   Anisotropy =    12.2409
   XX=    37.3362   YX=    -3.5193   ZX=     2.0180
   XY=    -4.1205   YY=    30.7208   ZY=     1.5255
   XZ=     1.6076   YZ=     1.9126   ZZ=    24.8967
   Eigenvalues:    23.8020    30.0066    39.1451
     38  H    Isotropic =    30.9672   Anisotropy =    10.7114
   XX=    31.1501   YX=     3.6025   ZX=    -1.9024
   XY=     2.1275   YY=    35.6596   ZY=    -1.7486
   XZ=    -0.9383   YZ=    -4.7962   ZZ=    26.0918
   Eigenvalues:    25.0302    29.7633    38.1081
 End of Minotr F.D. properties file   721 does not exist.
 End of Minotr F.D. properties file   722 does not exist.
 End of Minotr F.D. properties file   788 does not exist.

 **********************************************************************

            Population analysis using the SCF Density.

 **********************************************************************

 Orbital symmetries:
       Occupied  (A) (A) (A) (A) (A) (A) (A) (A) (A) (A) (A) (A)
                 (A) (A) (A) (A) (A) (A) (A) (A) (A) (A) (A) (A)
                 (A) (A) (A) (A) (A) (A) (A) (A) (A) (A) (A) (A)
                 (A) (A) (A) (A) (A) (A) (A) (A) (A) (A) (A) (A)
                 (A) (A) (A) (A) (A) (A) (A) (A) (A) (A) (A) (A)
                 (A) (A) (A) (A) (A) (A) (A) (A) (A)
       Virtual   (A) (A) (A) (A) (A) (A) (A) (A) (A) (A) (A) (A)
                 (A) (A) (A) (A) (A) (A) (A) (A) (A) (A) (A) (A)
                 (A) (A) (A) (A) (A) (A) (A) (A) (A) (A) (A) (A)
                 (A) (A) (A) (A) (A) (A) (A) (A) (A)
 The electronic state is 1-A.
 Alpha  occ. eigenvalues --  -20.29761 -20.26281 -15.30751 -11.11644 -11.11225
 Alpha  occ. eigenvalues --  -11.09725 -11.07931 -11.07561 -11.06729 -11.06533
 Alpha  occ. eigenvalues --  -11.05217 -11.05154 -11.04337 -11.04323 -11.04236
 Alpha  occ. eigenvalues --  -11.03950 -11.02884 -11.02150 -11.01859  -1.34390
 Alpha  occ. eigenvalues --   -1.31557  -1.19403  -1.09785  -1.05132  -1.03088
 Alpha  occ. eigenvalues --   -0.99086  -0.97913  -0.94983  -0.91922  -0.88262
 Alpha  occ. eigenvalues --   -0.84080  -0.79920  -0.77810  -0.76084  -0.74250
 Alpha  occ. eigenvalues --   -0.71637  -0.68315  -0.66106  -0.64562  -0.62715
 Alpha  occ. eigenvalues --   -0.61073  -0.59495  -0.58018  -0.57657  -0.55548
 Alpha  occ. eigenvalues --   -0.55092  -0.54596  -0.53282  -0.52575  -0.51939
 Alpha  occ. eigenvalues --   -0.51139  -0.49590  -0.49422  -0.47411  -0.46879
 Alpha  occ. eigenvalues --   -0.45461  -0.45182  -0.44682  -0.44084  -0.43748
 Alpha  occ. eigenvalues --   -0.42789  -0.42308  -0.39756  -0.39300  -0.36662
 Alpha  occ. eigenvalues --   -0.31648  -0.27555  -0.27133  -0.24462
 Alpha virt. eigenvalues --    0.21099   0.26927   0.34494   0.49113   0.51114
 Alpha virt. eigenvalues --    0.53127   0.56124   0.56752   0.58668   0.58956
 Alpha virt. eigenvalues --    0.60622   0.60861   0.61796   0.63558   0.64756
 Alpha virt. eigenvalues --    0.65332   0.67236   0.68084   0.68982   0.69276
 Alpha virt. eigenvalues --    0.70908   0.71186   0.73129   0.73492   0.73692
 Alpha virt. eigenvalues --    0.74082   0.75070   0.75225   0.76178   0.77315
 Alpha virt. eigenvalues --    0.77632   0.78727   0.79876   0.80130   0.81338
 Alpha virt. eigenvalues --    0.83559   0.83947   0.86119   0.86891   0.86979
 Alpha virt. eigenvalues --    0.90976   0.93704   1.00556   1.11996   1.13706
          Condensed to atoms (all electrons):
               1          2          3          4          5          6
     1  C    4.758055   0.505970  -0.028759  -0.010127  -0.028061   0.496355
     2  C    0.505970   4.807658   0.503793  -0.031614  -0.011325  -0.031090
     3  C   -0.028759   0.503793   4.758504   0.509462  -0.029179  -0.009483
     4  C   -0.010127  -0.031614   0.509462   4.807123   0.498712  -0.032221
     5  C   -0.028061  -0.011325  -0.029179   0.498712   4.750980   0.490068
     6  C    0.496355  -0.031090  -0.009483  -0.032221   0.490068   4.871280
     7  C   -0.023477   0.000767   0.000018   0.000812  -0.030025   0.391039
     8  O    0.000249   0.000008   0.000353  -0.027349   0.294188  -0.017059
     9  C    0.000029   0.000000  -0.000020   0.001670  -0.039602  -0.007249
    10  C    0.000616  -0.000007  -0.000000  -0.000035  -0.004520  -0.034235
    11  C    0.000000   0.000000   0.000000  -0.000014   0.001640  -0.000007
    12  C   -0.000000  -0.000000  -0.000000   0.000000  -0.000017  -0.000000
    13  N    0.000000  -0.000000  -0.000000  -0.000000   0.000000  -0.000003
    14  C   -0.000006   0.000000   0.000000  -0.000001   0.000005   0.000152
    15  C   -0.000000   0.000000  -0.000000   0.000000  -0.000001   0.000011
    16  C   -0.000000   0.000000   0.000000  -0.000000   0.000000  -0.000000
    17  C   -0.000000   0.000000   0.000000   0.000000  -0.000000   0.000000
    18  O   -0.001056  -0.000004  -0.000000  -0.000002   0.000327  -0.027314
    19  C    0.381506  -0.030298   0.000882   0.000012   0.000716  -0.023987
    20  H   -0.000016   0.000000  -0.000000   0.000001   0.000031   0.001077
    21  H   -0.000008  -0.000001   0.000000   0.000094  -0.002747   0.000595
    22  H   -0.000006   0.000000  -0.000000   0.000001  -0.000004   0.000152
    23  H   -0.025013   0.394247  -0.026864   0.001426   0.000048   0.001254
    24  H    0.001323  -0.024800   0.393628  -0.025109   0.001370   0.000008
    25  H    0.000037   0.001386  -0.024653   0.393446  -0.025343   0.001241
    26  H   -0.000000  -0.000000  -0.000000   0.000001  -0.000040  -0.000000
    27  H    0.000000   0.000000   0.000000  -0.000007   0.000124   0.000001
    28  H    0.000000   0.000000   0.000000   0.000000   0.000000  -0.000000
    29  H    0.000000   0.000000   0.000000  -0.000000   0.000000   0.000000
    30  H    0.000000  -0.000000   0.000000   0.000000  -0.000000   0.000000
    31  H   -0.000000   0.000000  -0.000000   0.000000   0.000000   0.000003
    32  H   -0.000000  -0.000000  -0.000000   0.000000  -0.000000   0.000000
    33  H    0.000000  -0.000000  -0.000000  -0.000000  -0.000000  -0.000000
    34  H   -0.000000   0.000000   0.000000  -0.000000   0.000000   0.000000
    35  H    0.000000  -0.000000  -0.000000  -0.000000  -0.000000  -0.000000
    36  H   -0.021115   0.000803  -0.000023   0.000002   0.000002  -0.002000
    37  H   -0.020509  -0.005664   0.000062  -0.000000  -0.000016   0.001127
    38  H   -0.021129   0.000628  -0.000024   0.000003  -0.000002  -0.001659
               7          8          9         10         11         12
     1  C   -0.023477   0.000249   0.000029   0.000616   0.000000  -0.000000
     2  C    0.000767   0.000008   0.000000  -0.000007   0.000000  -0.000000
     3  C    0.000018   0.000353  -0.000020  -0.000000   0.000000  -0.000000
     4  C    0.000812  -0.027349   0.001670  -0.000035  -0.000014   0.000000
     5  C   -0.030025   0.294188  -0.039602  -0.004520   0.001640  -0.000017
     6  C    0.391039  -0.017059  -0.007249  -0.034235  -0.000007  -0.000000
     7  C    4.765441  -0.002117  -0.022776   0.358863   0.000686   0.000045
     8  O   -0.002117   7.796322   0.261782  -0.016073  -0.020630   0.000259
     9  C   -0.022776   0.261782   4.740538   0.356721   0.358170  -0.020849
    10  C    0.358863  -0.016073   0.356721   4.826223  -0.023177  -0.009948
    11  C    0.000686  -0.020630   0.358170  -0.023177   4.758905   0.361991
    12  C    0.000045   0.000259  -0.020849  -0.009948   0.361991   4.698399
    13  N    0.000378   0.000016  -0.002618  -0.017035  -0.020634   0.332023
    14  C   -0.020998  -0.000483  -0.022708   0.359445  -0.005035  -0.030963
    15  C   -0.001353  -0.000001   0.000709  -0.020673   0.000006   0.001005
    16  C    0.000009   0.000000  -0.000010   0.000883  -0.000015   0.001346
    17  C   -0.000008  -0.000000   0.000013   0.000863   0.001084  -0.034918
    18  O    0.431434   0.000000   0.000317  -0.026958  -0.000001  -0.000000
    19  C   -0.002567  -0.000001  -0.000000   0.000007  -0.000000   0.000000
    20  H   -0.023613   0.000552  -0.021828   0.379557  -0.000901  -0.000681
    21  H   -0.001278  -0.019258   0.377835  -0.026151  -0.024223   0.001025
    22  H   -0.002373   0.000215  -0.001771  -0.026484   0.000142   0.001487
    23  H   -0.000014   0.000000  -0.000000   0.000000   0.000000  -0.000000
    24  H    0.000001  -0.000005   0.000000  -0.000000  -0.000000   0.000000
    25  H   -0.000019  -0.001097   0.000034   0.000000  -0.000003   0.000000
    26  H   -0.000013   0.000602  -0.021786   0.001068   0.382330  -0.022041
    27  H   -0.000019  -0.002240  -0.020596   0.000839   0.381026  -0.021167
    28  H   -0.000002  -0.000004  -0.001191  -0.000351  -0.025207   0.377171
    29  H    0.000000  -0.000006   0.001160   0.000068  -0.020471   0.383599
    30  H   -0.000076  -0.000000   0.000027  -0.004314   0.000003  -0.000022
    31  H   -0.000063   0.000000  -0.000009   0.000364  -0.000001  -0.000017
    32  H   -0.000000  -0.000000   0.000000  -0.000017   0.000000  -0.000030
    33  H   -0.000000  -0.000000   0.000000  -0.000005   0.000000  -0.000008
    34  H   -0.000000  -0.000000   0.000002   0.000028   0.000025  -0.006155
    35  H    0.000000   0.000000  -0.000001  -0.000019  -0.000006   0.000518
    36  H   -0.000066  -0.000000  -0.000000  -0.000003  -0.000000   0.000000
    37  H    0.000013   0.000000   0.000000   0.000000   0.000000  -0.000000
    38  H   -0.000061  -0.000000  -0.000000  -0.000003   0.000000  -0.000000
              13         14         15         16         17         18
     1  C    0.000000  -0.000006  -0.000000  -0.000000  -0.000000  -0.001056
     2  C   -0.000000   0.000000   0.000000   0.000000   0.000000  -0.000004
     3  C   -0.000000   0.000000  -0.000000   0.000000   0.000000  -0.000000
     4  C   -0.000000  -0.000001   0.000000  -0.000000   0.000000  -0.000002
     5  C    0.000000   0.000005  -0.000001   0.000000  -0.000000   0.000327
     6  C   -0.000003   0.000152   0.000011  -0.000000   0.000000  -0.027314
     7  C    0.000378  -0.020998  -0.001353   0.000009  -0.000008   0.431434
     8  O    0.000016  -0.000483  -0.000001   0.000000  -0.000000   0.000000
     9  C   -0.002618  -0.022708   0.000709  -0.000010   0.000013   0.000317
    10  C   -0.017035   0.359445  -0.020673   0.000883   0.000863  -0.026958
    11  C   -0.020634  -0.005035   0.000006  -0.000015   0.001084  -0.000001
    12  C    0.332023  -0.030963   0.001005   0.001346  -0.034918  -0.000000
    13  N    6.509218   0.326116  -0.028290  -0.029640   0.333382  -0.000000
    14  C    0.326116   4.735877   0.364709  -0.035371  -0.043093  -0.000481
    15  C   -0.028290   0.364709   4.769486   0.363540  -0.039785  -0.000160
    16  C   -0.029640  -0.035371   0.363540   4.753374   0.365393   0.000001
    17  C    0.333382  -0.043093  -0.039785   0.365393   4.715495  -0.000000
    18  O   -0.000000  -0.000481  -0.000160   0.000001  -0.000000   7.858063
    19  C    0.000000  -0.000000  -0.000000   0.000000  -0.000000  -0.001662
    20  H   -0.000831  -0.021191  -0.002972   0.000041   0.000081  -0.001622
    21  H    0.000006   0.001257  -0.000015   0.000000   0.000001   0.000001
    22  H   -0.029391   0.382000  -0.026421  -0.000214   0.001755   0.000031
    23  H    0.000000  -0.000000  -0.000000   0.000000  -0.000000   0.000000
    24  H   -0.000000  -0.000000   0.000000  -0.000000   0.000000  -0.000000
    25  H    0.000000  -0.000000   0.000000  -0.000000  -0.000000   0.000000
    26  H    0.000910   0.000016   0.000001   0.000000  -0.000026   0.000000
    27  H   -0.000676   0.000052   0.000001  -0.000000   0.000005   0.000000
    28  H   -0.022777  -0.001392   0.000135   0.000051  -0.004035   0.000000
    29  H   -0.021362   0.001615  -0.000031   0.000002  -0.001570  -0.000000
    30  H    0.000172  -0.021390   0.382603  -0.022404  -0.000848   0.000056
    31  H    0.000947  -0.019186   0.384353  -0.019960   0.001663  -0.000072
    32  H    0.001028   0.001526  -0.019497   0.384377  -0.019275   0.000000
    33  H   -0.000399  -0.000770  -0.021941   0.383980  -0.021499  -0.000000
    34  H   -0.020595   0.000375  -0.000855  -0.023338   0.378451  -0.000000
    35  H   -0.022303   0.001772   0.001551  -0.020145   0.383238   0.000000
    36  H   -0.000000  -0.000000   0.000000  -0.000000  -0.000000  -0.000362
    37  H    0.000000   0.000000  -0.000000  -0.000000  -0.000000   0.000064
    38  H   -0.000000   0.000000  -0.000000   0.000000   0.000000  -0.000339
              19         20         21         22         23         24
     1  C    0.381506  -0.000016  -0.000008  -0.000006  -0.025013   0.001323
     2  C   -0.030298   0.000000  -0.000001   0.000000   0.394247  -0.024800
     3  C    0.000882  -0.000000   0.000000  -0.000000  -0.026864   0.393628
     4  C    0.000012   0.000001   0.000094   0.000001   0.001426  -0.025109
     5  C    0.000716   0.000031  -0.002747  -0.000004   0.000048   0.001370
     6  C   -0.023987   0.001077   0.000595   0.000152   0.001254   0.000008
     7  C   -0.002567  -0.023613  -0.001278  -0.002373  -0.000014   0.000001
     8  O   -0.000001   0.000552  -0.019258   0.000215   0.000000  -0.000005
     9  C   -0.000000  -0.021828   0.377835  -0.001771  -0.000000   0.000000
    10  C    0.000007   0.379557  -0.026151  -0.026484   0.000000  -0.000000
    11  C   -0.000000  -0.000901  -0.024223   0.000142   0.000000  -0.000000
    12  C    0.000000  -0.000681   0.001025   0.001487  -0.000000   0.000000
    13  N    0.000000  -0.000831   0.000006  -0.029391   0.000000  -0.000000
    14  C   -0.000000  -0.021191   0.001257   0.382000  -0.000000  -0.000000
    15  C   -0.000000  -0.002972  -0.000015  -0.026421  -0.000000   0.000000
    16  C    0.000000   0.000041   0.000000  -0.000214   0.000000  -0.000000
    17  C   -0.000000   0.000081   0.000001   0.001755  -0.000000   0.000000
    18  O   -0.001662  -0.001622   0.000001   0.000031   0.000000  -0.000000
    19  C    4.713046  -0.000001  -0.000000  -0.000000  -0.004268  -0.000016
    20  H   -0.000001   0.624998  -0.002933   0.001825  -0.000000   0.000000
    21  H   -0.000000  -0.002933   0.646536   0.000005  -0.000000   0.000000
    22  H   -0.000000   0.001825   0.000005   0.644047  -0.000000   0.000000
    23  H   -0.004268  -0.000000  -0.000000  -0.000000   0.605248  -0.003748
    24  H   -0.000016   0.000000   0.000000   0.000000  -0.003748   0.593743
    25  H    0.000000  -0.000000   0.000000   0.000000  -0.000033  -0.003716
    26  H    0.000000   0.000030  -0.007031   0.000001  -0.000000   0.000000
    27  H   -0.000000   0.000005   0.001372  -0.000044   0.000000  -0.000000
    28  H   -0.000000  -0.000934   0.000084  -0.000102   0.000000  -0.000000
    29  H   -0.000000   0.000010  -0.000028  -0.000020   0.000000  -0.000000
    30  H    0.000000   0.000400  -0.000002   0.001819   0.000000  -0.000000
    31  H   -0.000000   0.000025   0.000000  -0.004450  -0.000000   0.000000
    32  H   -0.000000  -0.000001  -0.000000  -0.000012  -0.000000   0.000000
    33  H    0.000000  -0.000001   0.000000   0.000061   0.000000  -0.000000
    34  H   -0.000000  -0.000005   0.000000  -0.000093  -0.000000  -0.000000
    35  H    0.000000  -0.000002  -0.000000  -0.000004   0.000000   0.000000
    36  H    0.380755   0.000000   0.000000   0.000000   0.000070   0.000000
    37  H    0.382788  -0.000000  -0.000000  -0.000000   0.000159  -0.000003
    38  H    0.380549   0.000000  -0.000000   0.000000   0.000072   0.000000
              25         26         27         28         29         30
     1  C    0.000037  -0.000000   0.000000   0.000000   0.000000   0.000000
     2  C    0.001386  -0.000000   0.000000   0.000000   0.000000  -0.000000
     3  C   -0.024653  -0.000000   0.000000   0.000000   0.000000   0.000000
     4  C    0.393446   0.000001  -0.000007   0.000000  -0.000000   0.000000
     5  C   -0.025343  -0.000040   0.000124   0.000000   0.000000  -0.000000
     6  C    0.001241  -0.000000   0.000001  -0.000000   0.000000   0.000000
     7  C   -0.000019  -0.000013  -0.000019  -0.000002   0.000000  -0.000076
     8  O   -0.001097   0.000602  -0.002240  -0.000004  -0.000006  -0.000000
     9  C    0.000034  -0.021786  -0.020596  -0.001191   0.001160   0.000027
    10  C    0.000000   0.001068   0.000839  -0.000351   0.000068  -0.004314
    11  C   -0.000003   0.382330   0.381026  -0.025207  -0.020471   0.000003
    12  C    0.000000  -0.022041  -0.021167   0.377171   0.383599  -0.000022
    13  N    0.000000   0.000910  -0.000676  -0.022777  -0.021362   0.000172
    14  C   -0.000000   0.000016   0.000052  -0.001392   0.001615  -0.021390
    15  C    0.000000   0.000001   0.000001   0.000135  -0.000031   0.382603
    16  C   -0.000000   0.000000  -0.000000   0.000051   0.000002  -0.022404
    17  C   -0.000000  -0.000026   0.000005  -0.004035  -0.001570  -0.000848
    18  O    0.000000   0.000000   0.000000   0.000000  -0.000000   0.000056
    19  C    0.000000   0.000000  -0.000000  -0.000000  -0.000000   0.000000
    20  H   -0.000000   0.000030   0.000005  -0.000934   0.000010   0.000400
    21  H    0.000000  -0.007031   0.001372   0.000084  -0.000028  -0.000002
    22  H    0.000000   0.000001  -0.000044  -0.000102  -0.000020   0.001819
    23  H   -0.000033  -0.000000   0.000000   0.000000   0.000000   0.000000
    24  H   -0.003716   0.000000  -0.000000  -0.000000  -0.000000  -0.000000
    25  H    0.589226   0.000000  -0.000001  -0.000000  -0.000000  -0.000000
    26  H    0.000000   0.634378  -0.022193  -0.003210  -0.001193   0.000000
    27  H   -0.000001  -0.022193   0.607461   0.001926  -0.003735  -0.000000
    28  H   -0.000000  -0.003210   0.001926   0.666843  -0.026888  -0.000001
    29  H   -0.000000  -0.001193  -0.003735  -0.026888   0.625692   0.000000
    30  H   -0.000000   0.000000  -0.000000  -0.000001   0.000000   0.631831
    31  H   -0.000000  -0.000000   0.000000  -0.000003   0.000001  -0.022687
    32  H    0.000000  -0.000000   0.000000   0.000000  -0.000000  -0.004024
    33  H    0.000000   0.000000  -0.000000  -0.000002  -0.000000   0.001908
    34  H   -0.000000  -0.000001  -0.000000   0.001972  -0.000469   0.000020
    35  H    0.000000   0.000000   0.000000  -0.000169   0.000321  -0.000003
    36  H   -0.000000   0.000000   0.000000   0.000000  -0.000000   0.000000
    37  H    0.000000  -0.000000  -0.000000   0.000000   0.000000   0.000000
    38  H   -0.000000   0.000000  -0.000000  -0.000000   0.000000   0.000000
              31         32         33         34         35         36
     1  C   -0.000000  -0.000000   0.000000  -0.000000   0.000000  -0.021115
     2  C    0.000000  -0.000000  -0.000000   0.000000  -0.000000   0.000803
     3  C   -0.000000  -0.000000  -0.000000   0.000000  -0.000000  -0.000023
     4  C    0.000000   0.000000  -0.000000  -0.000000  -0.000000   0.000002
     5  C    0.000000  -0.000000  -0.000000   0.000000  -0.000000   0.000002
     6  C    0.000003   0.000000  -0.000000   0.000000  -0.000000  -0.002000
     7  C   -0.000063  -0.000000  -0.000000  -0.000000   0.000000  -0.000066
     8  O    0.000000  -0.000000  -0.000000  -0.000000   0.000000  -0.000000
     9  C   -0.000009   0.000000   0.000000   0.000002  -0.000001  -0.000000
    10  C    0.000364  -0.000017  -0.000005   0.000028  -0.000019  -0.000003
    11  C   -0.000001   0.000000   0.000000   0.000025  -0.000006  -0.000000
    12  C   -0.000017  -0.000030  -0.000008  -0.006155   0.000518   0.000000
    13  N    0.000947   0.001028  -0.000399  -0.020595  -0.022303  -0.000000
    14  C   -0.019186   0.001526  -0.000770   0.000375   0.001772  -0.000000
    15  C    0.384353  -0.019497  -0.021941  -0.000855   0.001551   0.000000
    16  C   -0.019960   0.384377   0.383980  -0.023338  -0.020145  -0.000000
    17  C    0.001663  -0.019275  -0.021499   0.378451   0.383238  -0.000000
    18  O   -0.000072   0.000000  -0.000000  -0.000000   0.000000  -0.000362
    19  C   -0.000000  -0.000000   0.000000  -0.000000   0.000000   0.380755
    20  H    0.000025  -0.000001  -0.000001  -0.000005  -0.000002   0.000000
    21  H    0.000000  -0.000000   0.000000   0.000000  -0.000000   0.000000
    22  H   -0.004450  -0.000012   0.000061  -0.000093  -0.000004   0.000000
    23  H   -0.000000  -0.000000   0.000000  -0.000000   0.000000   0.000070
    24  H    0.000000   0.000000  -0.000000  -0.000000   0.000000   0.000000
    25  H   -0.000000   0.000000   0.000000  -0.000000   0.000000  -0.000000
    26  H   -0.000000  -0.000000   0.000000  -0.000001   0.000000   0.000000
    27  H    0.000000   0.000000  -0.000000  -0.000000   0.000000   0.000000
    28  H   -0.000003   0.000000  -0.000002   0.001972  -0.000169   0.000000
    29  H    0.000001  -0.000000  -0.000000  -0.000469   0.000321  -0.000000
    30  H   -0.022687  -0.004024   0.001908   0.000020  -0.000003   0.000000
    31  H    0.622745  -0.000089  -0.003920  -0.000012  -0.000036   0.000000
    32  H   -0.000089   0.624538  -0.022744  -0.003781   0.000139   0.000000
    33  H   -0.003920  -0.022744   0.628040   0.001893  -0.003981   0.000000
    34  H   -0.000012  -0.003781   0.001893   0.656108  -0.026890   0.000000
    35  H   -0.000036   0.000139  -0.003981  -0.026890   0.626476  -0.000000
    36  H    0.000000   0.000000   0.000000   0.000000  -0.000000   0.607907
    37  H   -0.000000  -0.000000   0.000000   0.000000   0.000000  -0.022153
    38  H    0.000000  -0.000000  -0.000000  -0.000000  -0.000000  -0.018391
              37         38
     1  C   -0.020509  -0.021129
     2  C   -0.005664   0.000628
     3  C    0.000062  -0.000024
     4  C   -0.000000   0.000003
     5  C   -0.000016  -0.000002
     6  C    0.001127  -0.001659
     7  C    0.000013  -0.000061
     8  O    0.000000  -0.000000
     9  C    0.000000  -0.000000
    10  C    0.000000  -0.000003
    11  C    0.000000   0.000000
    12  C   -0.000000  -0.000000
    13  N    0.000000  -0.000000
    14  C    0.000000   0.000000
    15  C   -0.000000  -0.000000
    16  C   -0.000000   0.000000
    17  C   -0.000000   0.000000
    18  O    0.000064  -0.000339
    19  C    0.382788   0.380549
    20  H   -0.000000   0.000000
    21  H   -0.000000  -0.000000
    22  H   -0.000000   0.000000
    23  H    0.000159   0.000072
    24  H   -0.000003   0.000000
    25  H    0.000000  -0.000000
    26  H   -0.000000   0.000000
    27  H   -0.000000  -0.000000
    28  H    0.000000  -0.000000
    29  H    0.000000   0.000000
    30  H    0.000000   0.000000
    31  H   -0.000000   0.000000
    32  H   -0.000000  -0.000000
    33  H    0.000000  -0.000000
    34  H    0.000000  -0.000000
    35  H    0.000000  -0.000000
    36  H   -0.022153  -0.018391
    37  H    0.625000  -0.021866
    38  H   -0.021866   0.606163
 Mulliken charges:
               1
     1  C    0.035142
     2  C   -0.080457
     3  C   -0.047697
     4  C   -0.086284
     5  C    0.132667
     6  C   -0.068056
     7  C    0.181412
     8  O   -0.248225
     9  C    0.084010
    10  C   -0.075537
    11  C   -0.105686
    12  C   -0.012057
    13  N   -0.287641
    14  C    0.048152
    15  C   -0.106113
    16  C   -0.101901
    17  C   -0.016369
    18  O   -0.230262
    19  C   -0.177463
    20  H    0.068897
    21  H    0.054865
    22  H    0.057844
    23  H    0.057416
    24  H    0.067324
    25  H    0.069495
    26  H    0.058198
    27  H    0.077866
    28  H    0.038083
    29  H    0.063304
    30  H    0.056932
    31  H    0.060402
    32  H    0.057862
    33  H    0.059389
    34  H    0.043319
    35  H    0.059542
    36  H    0.074574
    37  H    0.060997
    38  H    0.076056
 Sum of Mulliken charges =  -0.00000
 Mulliken charges with hydrogens summed into heavy atoms:
               1
     1  C    0.035142
     2  C   -0.023041
     3  C    0.019627
     4  C   -0.016789
     5  C    0.132667
     6  C   -0.068056
     7  C    0.181412
     8  O   -0.248225
     9  C    0.138875
    10  C   -0.006640
    11  C    0.030378
    12  C    0.089331
    13  N   -0.287641
    14  C    0.105996
    15  C    0.011221
    16  C    0.015349
    17  C    0.086492
    18  O   -0.230262
    19  C    0.034164
 Electronic spatial extent (au):  <R**2>=           4986.1027
 Charge=              0.0000 electrons
 Dipole moment (field-independent basis, Debye):
    X=              0.2395    Y=             -0.2629    Z=              1.0374  Tot=              1.0967
 Quadrupole moment (field-independent basis, Debye-Ang):
   XX=            -98.8706   YY=           -109.0892   ZZ=           -105.1119
   XY=              1.3345   XZ=              3.7955   YZ=             -4.2479
 Traceless Quadrupole moment (field-independent basis, Debye-Ang):
   XX=              5.4866   YY=             -4.7320   ZZ=             -0.7547
   XY=              1.3345   XZ=              3.7955   YZ=             -4.2479
 Octapole moment (field-independent basis, Debye-Ang**2):
  XXX=             -9.2413  YYY=             -9.4642  ZZZ=              8.1483  XYY=              2.3806
  XXY=              5.6844  XXZ=              1.0800  XZZ=              1.5153  YZZ=             -2.0704
  YYZ=             -4.3895  XYZ=             -6.1421
 Hexadecapole moment (field-independent basis, Debye-Ang**3):
 XXXX=          -4305.7004 YYYY=          -1472.6930 ZZZZ=           -451.3269 XXXY=             -1.6756
 XXXZ=             40.3337 YYYX=             -4.7353 YYYZ=             -1.8397 ZZZX=             -9.4008
 ZZZY=             10.1485 XXYY=           -951.5278 XXZZ=           -825.7129 YYZZ=           -318.5499
 XXYZ=             14.9395 YYXZ=             13.9392 ZZXY=              5.1015
 N-N= 1.495874814439D+03 E-N=-4.886977392186D+03  KE= 8.035503115456D+02
 ******************************Gaussian NBO Version 3.1******************************
             N A T U R A L   A T O M I C   O R B I T A L   A N D
          N A T U R A L   B O N D   O R B I T A L   A N A L Y S I S
 ******************************Gaussian NBO Version 3.1******************************
       /RESON  / : Allow strongly delocalized NBO set
       /NLMO   / : Form Natural Localized Molecular Orbitals
       /NMR /    : Analyze NMR Sheilding Tensor 

 Analyzing the SCF density

 Job title: Title Card Required                                             

 Storage needed:     43472 in NPA,     53775 in NBO,    102144 in NLMO ( 104850000 available)
 GSVD:  LWork=      -13908 too small for GESVD, short by       66690 words or       66690 for optimal perf.


 NATURAL POPULATIONS:  Natural atomic orbital occupancies 
                                                          
   NAO  Atom  No  lang   Type(AO)    Occupancy      Energy
 ----------------------------------------------------------
     1    C    1  S      Cor( 1S)     1.99991     -10.98394
     2    C    1  S      Val( 2S)     1.08184      -0.20059
     3    C    1  px     Val( 2p)     0.95652       0.15210
     4    C    1  py     Val( 2p)     0.94723       0.13863
     5    C    1  pz     Val( 2p)     0.93654       0.04380

     6    C    2  S      Cor( 1S)     1.99995     -10.94612
     7    C    2  S      Val( 2S)     1.07988      -0.18482
     8    C    2  px     Val( 2p)     0.98071       0.14153
     9    C    2  py     Val( 2p)     0.97997       0.13855
    10    C    2  pz     Val( 2p)     1.03466       0.02447

    11    C    3  S      Cor( 1S)     1.99994     -10.96353
    12    C    3  S      Val( 2S)     1.07996      -0.18833
    13    C    3  px     Val( 2p)     0.98173       0.13540
    14    C    3  py     Val( 2p)     0.98141       0.13119
    15    C    3  pz     Val( 2p)     0.96361       0.03413

    16    C    4  S      Cor( 1S)     1.99994     -10.94752
    17    C    4  S      Val( 2S)     1.07682      -0.18452
    18    C    4  px     Val( 2p)     0.97575       0.14194
    19    C    4  py     Val( 2p)     0.99519       0.12796
    20    C    4  pz     Val( 2p)     1.04773       0.01844

    21    C    5  S      Cor( 1S)     1.99978     -11.03234
    22    C    5  S      Val( 2S)     1.05898      -0.21286
    23    C    5  px     Val( 2p)     0.85070       0.14310
    24    C    5  py     Val( 2p)     0.93286       0.13989
    25    C    5  pz     Val( 2p)     0.96828       0.01021

    26    C    6  S      Cor( 1S)     1.99991     -10.96070
    27    C    6  S      Val( 2S)     1.08543      -0.20639
    28    C    6  px     Val( 2p)     0.98100       0.13318
    29    C    6  py     Val( 2p)     0.97692       0.12841
    30    C    6  pz     Val( 2p)     1.08766      -0.00085

    31    C    7  S      Cor( 1S)     1.99996     -11.05574
    32    C    7  S      Val( 2S)     1.07650      -0.24399
    33    C    7  px     Val( 2p)     0.93746       0.10667
    34    C    7  py     Val( 2p)     0.85328       0.16126
    35    C    7  pz     Val( 2p)     0.89418       0.01028

    36    O    8  S      Cor( 1S)     1.99999     -20.20662
    37    O    8  S      Val( 2S)     1.73258      -1.01898
    38    O    8  px     Val( 2p)     1.28324      -0.11324
    39    O    8  py     Val( 2p)     1.67248      -0.29167
    40    O    8  pz     Val( 2p)     1.56578      -0.24458

    41    C    9  S      Cor( 1S)     1.99988     -11.06105
    42    C    9  S      Val( 2S)     1.08754      -0.24224
    43    C    9  px     Val( 2p)     0.92014       0.06702
    44    C    9  py     Val( 2p)     0.95291       0.07345
    45    C    9  pz     Val( 2p)     0.88447       0.08893

    46    C   10  S      Cor( 1S)     1.99996     -11.00661
    47    C   10  S      Val( 2S)     1.10189      -0.23409
    48    C   10  px     Val( 2p)     1.00330       0.05974
    49    C   10  py     Val( 2p)     0.98231       0.06889
    50    C   10  pz     Val( 2p)     1.00606       0.06631

    51    C   11  S      Cor( 1S)     1.99996     -10.99046
    52    C   11  S      Val( 2S)     1.09141      -0.20943
    53    C   11  px     Val( 2p)     0.96215       0.08636
    54    C   11  py     Val( 2p)     0.99572       0.07617
    55    C   11  pz     Val( 2p)     1.03626       0.07174

    56    C   12  S      Cor( 1S)     1.99994     -11.01557
    57    C   12  S      Val( 2S)     1.07206      -0.19947
    58    C   12  px     Val( 2p)     0.99712       0.07087
    59    C   12  py     Val( 2p)     0.95796       0.08411
    60    C   12  pz     Val( 2p)     0.92984       0.10448

    61    N   13  S      Cor( 1S)     1.99999     -15.24308
    62    N   13  S      Val( 2S)     1.43965      -0.59156
    63    N   13  px     Val( 2p)     1.03488       0.04656
    64    N   13  py     Val( 2p)     1.24225      -0.03092
    65    N   13  pz     Val( 2p)     1.56040      -0.15651

    66    C   14  S      Cor( 1S)     1.99993     -11.02440
    67    C   14  S      Val( 2S)     1.08301      -0.21360
    68    C   14  px     Val( 2p)     0.90836       0.10378
    69    C   14  py     Val( 2p)     0.93328       0.09242
    70    C   14  pz     Val( 2p)     0.97962       0.08710

    71    C   15  S      Cor( 1S)     1.99997     -10.97905
    72    C   15  S      Val( 2S)     1.08519      -0.19578
    73    C   15  px     Val( 2p)     0.98954       0.08375
    74    C   15  py     Val( 2p)     0.98263       0.09010
    75    C   15  pz     Val( 2p)     1.01818       0.08353

    76    C   16  S      Cor( 1S)     1.99998     -10.97926
    77    C   16  S      Val( 2S)     1.07780      -0.18961
    78    C   16  px     Val( 2p)     0.98647       0.08527
    79    C   16  py     Val( 2p)     0.99238       0.08923
    80    C   16  pz     Val( 2p)     1.01172       0.08772

    81    C   17  S      Cor( 1S)     1.99994     -11.00634
    82    C   17  S      Val( 2S)     1.07436      -0.19374
    83    C   17  px     Val( 2p)     0.93263       0.10365
    84    C   17  py     Val( 2p)     0.94217       0.09029
    85    C   17  pz     Val( 2p)     1.01225       0.08009

    86    O   18  S      Cor( 1S)     1.99999     -20.11330
    87    O   18  S      Val( 2S)     1.80628      -1.06163
    88    O   18  px     Val( 2p)     1.87645      -0.33916
    89    O   18  py     Val( 2p)     1.34141      -0.11441
    90    O   18  pz     Val( 2p)     1.21662      -0.12091

    91    C   19  S      Cor( 1S)     1.99997     -10.97588
    92    C   19  S      Val( 2S)     1.07805      -0.18628
    93    C   19  px     Val( 2p)     1.03800       0.07413
    94    C   19  py     Val( 2p)     0.99108       0.08283
    95    C   19  pz     Val( 2p)     1.03921       0.07307

    96    H   20  S      Val( 1S)     0.95205       0.05117

    97    H   21  S      Val( 1S)     0.98205       0.03352

    98    H   22  S      Val( 1S)     0.97460       0.06312

    99    H   23  S      Val( 1S)     0.96780       0.06760

   100    H   24  S      Val( 1S)     0.96085       0.06193

   101    H   25  S      Val( 1S)     0.95537       0.07473

   102    H   26  S      Val( 1S)     0.96261       0.06051

   103    H   27  S      Val( 1S)     0.94426       0.07867

   104    H   28  S      Val( 1S)     0.98982       0.04971

   105    H   29  S      Val( 1S)     0.96378       0.06227

   106    H   30  S      Val( 1S)     0.96371       0.06811

   107    H   31  S      Val( 1S)     0.96013       0.07104

   108    H   32  S      Val( 1S)     0.96196       0.06837

   109    H   33  S      Val( 1S)     0.96102       0.07182

   110    H   34  S      Val( 1S)     0.98369       0.05513

   111    H   35  S      Val( 1S)     0.96786       0.06861

   112    H   36  S      Val( 1S)     0.94176       0.08167

   113    H   37  S      Val( 1S)     0.95566       0.07396

   114    H   38  S      Val( 1S)     0.94025       0.08243


 Summary of Natural Population Analysis:                  
                                                          
                                       Natural Population 
                Natural  -----------------------------------------------
    Atom  No    Charge         Core      Valence    Rydberg      Total
 -----------------------------------------------------------------------
      C    1    0.07797      1.99991     3.92212    0.00000     5.92203
      C    2   -0.07517      1.99995     4.07522    0.00000     6.07517
      C    3   -0.00665      1.99994     4.00671    0.00000     6.00665
      C    4   -0.09543      1.99994     4.09549    0.00000     6.09543
      C    5    0.18940      1.99978     3.81082    0.00000     5.81060
      C    6   -0.13091      1.99991     4.13100    0.00000     6.13091
      C    7    0.23862      1.99996     3.76142    0.00000     5.76138
      O    8   -0.25407      1.99999     6.25408    0.00000     8.25407
      C    9    0.15507      1.99988     3.84506    0.00000     5.84493
      C   10   -0.09352      1.99996     4.09356    0.00000     6.09352
      C   11   -0.08550      1.99996     4.08554    0.00000     6.08550
      C   12    0.04308      1.99994     3.95698    0.00000     5.95692
      N   13   -0.27716      1.99999     5.27717    0.00000     7.27716
      C   14    0.09579      1.99993     3.90428    0.00000     5.90421
      C   15   -0.07551      1.99997     4.07554    0.00000     6.07551
      C   16   -0.06835      1.99998     4.06837    0.00000     6.06835
      C   17    0.03864      1.99994     3.96142    0.00000     5.96136
      O   18   -0.24074      1.99999     6.24075    0.00000     8.24074
      C   19   -0.14631      1.99997     4.14634    0.00000     6.14631
      H   20    0.04795      0.00000     0.95205    0.00000     0.95205
      H   21    0.01795      0.00000     0.98205    0.00000     0.98205
      H   22    0.02540      0.00000     0.97460    0.00000     0.97460
      H   23    0.03220      0.00000     0.96780    0.00000     0.96780
      H   24    0.03915      0.00000     0.96085    0.00000     0.96085
      H   25    0.04463      0.00000     0.95537    0.00000     0.95537
      H   26    0.03739      0.00000     0.96261    0.00000     0.96261
      H   27    0.05574      0.00000     0.94426    0.00000     0.94426
      H   28    0.01018      0.00000     0.98982    0.00000     0.98982
      H   29    0.03622      0.00000     0.96378    0.00000     0.96378
      H   30    0.03629      0.00000     0.96371    0.00000     0.96371
      H   31    0.03987      0.00000     0.96013    0.00000     0.96013
      H   32    0.03804      0.00000     0.96196    0.00000     0.96196
      H   33    0.03898      0.00000     0.96102    0.00000     0.96102
      H   34    0.01631      0.00000     0.98369    0.00000     0.98369
      H   35    0.03214      0.00000     0.96786    0.00000     0.96786
      H   36    0.05824      0.00000     0.94176    0.00000     0.94176
      H   37    0.04434      0.00000     0.95566    0.00000     0.95566
      H   38    0.05975      0.00000     0.94025    0.00000     0.94025
 =======================================================================
   * Total *   -0.00000     37.99889   100.00111    0.00000   138.00000

                                 Natural Population      
 --------------------------------------------------------
   Core                      37.99889 ( 99.9971% of  38)
   Valence                  100.00111 (100.0011% of 100)
   Natural Minimal Basis    138.00000 (100.0000% of 138)
   Natural Rydberg Basis      0.00000 (  0.0000% of 138)
 --------------------------------------------------------

    Atom  No          Natural Electron Configuration
 ----------------------------------------------------------------------------
      C    1      [core]2S( 1.08)2p( 2.84)
      C    2      [core]2S( 1.08)2p( 3.00)
      C    3      [core]2S( 1.08)2p( 2.93)
      C    4      [core]2S( 1.08)2p( 3.02)
      C    5      [core]2S( 1.06)2p( 2.75)
      C    6      [core]2S( 1.09)2p( 3.05)
      C    7      [core]2S( 1.08)2p( 2.68)
      O    8      [core]2S( 1.73)2p( 4.52)
      C    9      [core]2S( 1.09)2p( 2.76)
      C   10      [core]2S( 1.10)2p( 2.99)
      C   11      [core]2S( 1.09)2p( 2.99)
      C   12      [core]2S( 1.07)2p( 2.88)
      N   13      [core]2S( 1.44)2p( 3.84)
      C   14      [core]2S( 1.08)2p( 2.82)
      C   15      [core]2S( 1.09)2p( 2.99)
      C   16      [core]2S( 1.08)2p( 2.99)
      C   17      [core]2S( 1.07)2p( 2.89)
      O   18      [core]2S( 1.81)2p( 4.43)
      C   19      [core]2S( 1.08)2p( 3.07)
      H   20            1S( 0.95)
      H   21            1S( 0.98)
      H   22            1S( 0.97)
      H   23            1S( 0.97)
      H   24            1S( 0.96)
      H   25            1S( 0.96)
      H   26            1S( 0.96)
      H   27            1S( 0.94)
      H   28            1S( 0.99)
      H   29            1S( 0.96)
      H   30            1S( 0.96)
      H   31            1S( 0.96)
      H   32            1S( 0.96)
      H   33            1S( 0.96)
      H   34            1S( 0.98)
      H   35            1S( 0.97)
      H   36            1S( 0.94)
      H   37            1S( 0.96)
      H   38            1S( 0.94)


 NATURAL BOND ORBITAL ANALYSIS:

                       Occupancies       Lewis Structure    Low   High
           Occ.    -------------------  -----------------   occ   occ
  Cycle   Thresh.   Lewis   Non-Lewis     CR  BD  3C  LP    (L)   (NL)   Dev
 =============================================================================
   1(1)    1.90   134.43382   3.56618     19  43   0   7     3      3    0.45
   2(2)    1.90   134.43382   3.56618     19  43   0   7     3      3    0.45
   3(1)    1.80   134.35329   3.64671     19  42   0   8     3      3    0.45
   4(2)    1.80   134.35329   3.64671     19  42   0   8     3      3    0.45
   5(1)    1.70   134.35329   3.64671     19  42   0   8     3      3    0.45
   6(2)    1.70   134.35329   3.64671     19  42   0   8     3      3    0.45
   7(1)    1.60   135.52186   2.47814     19  44   0   6     1      3    0.43
   8(2)    1.60   136.13318   1.86682     19  45   0   5     0      3    0.43
   9(3)    1.60   136.08919   1.91081     19  45   0   5     0      3    0.45
  10(4)    1.60   136.13318   1.86682     19  45   0   5     0      3    0.43
  11(1)    1.50   136.13318   1.86682     19  45   0   5     0      3    0.43
  12(2)    1.50   136.08919   1.91081     19  45   0   5     0      3    0.45
  13(3)    1.50   136.13318   1.86682     19  45   0   5     0      3    0.43
  14(1)    1.60   136.13318   1.86682     19  45   0   5     0      3    0.43
 -----------------------------------------------------------------------------

 Structure accepted: RESONANCE keyword permits strongly delocalized structure

 --------------------------------------------------------
   Core                     37.99888 ( 99.997% of  38)
   Valence Lewis            98.13430 ( 98.134% of 100)
  ==================       ============================
   Total Lewis             136.13318 ( 98.647% of 138)
  -----------------------------------------------------
   Valence non-Lewis         1.86682 (  1.353% of 138)
   Rydberg non-Lewis         0.00000 (  0.000% of 138)
  ==================       ============================
   Total non-Lewis           1.86682 (  1.353% of 138)
 --------------------------------------------------------


       (Occupancy)   Bond orbital/ Coefficients/ Hybrids
 ---------------------------------------------------------------------------------
     1. (1.98532) BD ( 1) C   1 - C   2  
                ( 50.02%)   0.7072* C   1 s( 33.74%)p 1.96( 66.26%)
                                            0.0000  0.5808 -0.6256 -0.4063 -0.3259
                ( 49.98%)   0.7070* C   2 s( 34.46%)p 1.90( 65.54%)
                                            0.0001  0.5871  0.6132  0.4070  0.3371
     2. (1.65978) BD ( 2) C   1 - C   2  
                ( 45.50%)   0.6745* C   1 s(  0.00%)p 1.00(100.00%)
                                            0.0000 -0.0014 -0.2623 -0.3265  0.9081
                ( 54.50%)   0.7383* C   2 s(  0.00%)p 1.00(100.00%)
                                           -0.0000 -0.0016 -0.2711 -0.3362  0.9020
     3. (1.98112) BD ( 1) C   1 - C   6  
                ( 49.45%)   0.7032* C   1 s( 34.63%)p 1.89( 65.37%)
                                            0.0001  0.5885  0.7259 -0.3455  0.0863
                ( 50.55%)   0.7110* C   6 s( 35.53%)p 1.81( 64.47%)
                                            0.0000  0.5961 -0.7015  0.3856 -0.0626
     4. (1.98739) BD ( 1) C   1 - C  19  
                ( 50.14%)   0.7081* C   1 s( 31.63%)p 2.16( 68.37%)
                                           -0.0000  0.5624 -0.1141  0.7803  0.2484
                ( 49.86%)   0.7061* C  19 s( 25.58%)p 2.91( 74.42%)
                                            0.0001  0.5058  0.1405 -0.8136 -0.2501
     5. (1.98979) BD ( 1) C   2 - C   3  
                ( 49.56%)   0.7040* C   2 s( 34.19%)p 1.92( 65.81%)
                                            0.0001  0.5847  0.0888 -0.7643 -0.2571
                ( 50.44%)   0.7102* C   3 s( 34.33%)p 1.91( 65.67%)
                                            0.0000  0.5859 -0.1043  0.7617  0.2561
     6. (1.98878) BD ( 1) C   2 - H  23  
                ( 51.63%)   0.7186* C   2 s( 31.34%)p 2.19( 68.66%)
                                           -0.0001  0.5599 -0.7366  0.3704 -0.0823
                ( 48.37%)   0.6955* H  23 s(100.00%)
[...]
    3      -0.5055       -0.5330       0.0275        -1.1664       0.6609
    4       0.1441       -1.0433       1.1874        -0.8371       0.9813
    8       0.3073       -0.2556       0.5629        -0.7330       1.0403
   13       0.8914       -0.1665       1.0579        -0.6000       1.4914
   15     -10.6646      -10.7976       0.1330       -11.4070       0.7424
   16     -10.3643      -10.7690       0.4048       -11.1385       0.7743
   17    -118.5988     -129.1186      10.5198      -128.0349       9.4361
   18     -27.3139      -51.7995      24.4855       -52.2551      24.9412
   20      -1.1955       -1.3290       0.1335        -1.2423       0.0468
   24      -0.2756       -0.5767       0.3011        -1.3424       1.0667
   43      -0.4176       -1.8861       1.4685        -1.3812       0.9636
   45      -0.3642       -1.6559       1.2917        -1.3348       0.9706
   63     271.9241       -0.0058     271.9299        -0.0058     271.9298
   68     -35.2303      -70.3975      35.1672       -70.2970      35.0667
   69    -429.9400     -466.8557      36.9158      -469.6353      39.6953
 Sum     -361.6034     -747.1899     385.5865      -751.4107     389.8073

 Contributions to Isotropic shielding for atom   19 (   218.0177 ppm):
                         Standard Origin              Atomic Origin
 NLMO      Total    Paramagnetic  Diamagnetic   Paramagnetic  Diamagnetic
    1      -1.9500       -1.3501      -0.5999        -2.4426       0.4926
    2      -0.8959       -0.6711      -0.2248        -2.5502       1.6543
    3      -1.0699       -1.5098       0.4399        -1.3713       0.3014
    4       3.8502      -11.2685      15.1186        -3.1100       6.9602
    6      -0.6526       -1.5039       0.8512        -1.6893       1.0367
    8       0.8149       -0.2834       1.0984        -0.3705       1.1854
   15      -0.3934        0.0798      -0.4732        -1.2446       0.8512
   17      -0.4475       -0.3058      -0.1417        -1.1868       0.7394
   18       0.2737        0.2601       0.0136        -1.2142       1.4879
   43       7.1049       -3.6311      10.7360        -4.3435      11.4483
   44       3.9576        5.1857      -1.2281        -7.2244      11.1820
   45       6.9523       -5.9901      12.9424        -4.4705      11.4228
   64     200.0789       -0.0036     200.0826         0.0034     200.0755
 Sum      217.6232      -20.9917     238.6149       -31.2145     248.8377

 Contributions to Isotropic shielding for atom   20 (    31.0082 ppm):
                         Standard Origin              Atomic Origin
 NLMO      Total    Paramagnetic  Diamagnetic   Paramagnetic  Diamagnetic
   13       0.1587       -0.3598       0.5186        -0.8427       1.0014
   16       1.6447        1.5741       0.0706         0.7564       0.8883
   17      -0.7085       -0.8562       0.1477        -1.6433       0.9348
   18       0.3230       -0.2614       0.5845        -1.3415       1.6646
   20       1.2194        1.2975      -0.0781         0.4817       0.7377
   23       1.1590        1.2133      -0.0543         0.3154       0.8436
   24      25.8874       -0.0065      25.8939         0.4145      25.4729
   29      -0.2025       -1.4145       1.2120        -0.8220       0.6195
   36      -0.1070       -1.2404       1.1334        -0.9057       0.7987
 Sum       29.3742       -0.0540      29.4282        -3.5872      32.9614

 Contributions to Isotropic shielding for atom   21 (    31.0965 ppm):
                         Standard Origin              Atomic Origin
 NLMO      Total    Paramagnetic  Diamagnetic   Paramagnetic  Diamagnetic
   13      -0.0246       -0.4687       0.4440        -1.3216       1.2970
   19       0.8499        0.6925       0.1574        -0.5855       1.4354
   20       0.9153       -0.1072       1.0225         0.0013       0.9139
   21       0.4227        1.2355      -0.8128        -0.7522       1.1749
   22      26.4007        0.3069      26.0938         0.8145      25.5862
   24       0.1764       -0.0200       0.1964        -0.8354       1.0119
   26      -0.1012       -1.3654       1.2642        -1.2707       1.1695
   65       0.7083        0.1229       0.5854         1.0203      -0.3120
 Sum       29.3475        0.3967      28.9508        -2.9293      32.2767

 Contributions to Isotropic shielding for atom   22 (    31.5999 ppm):
                         Standard Origin              Atomic Origin
 NLMO      Total    Paramagnetic  Diamagnetic   Paramagnetic  Diamagnetic
   13      -0.0353       -0.5681       0.5328        -1.2319       1.1966
   19       0.0704       -0.4721       0.5425        -1.0351       1.1054
   23       1.2659       -0.6362       1.9021         0.3420       0.9239
   31       0.8421        0.5326       0.3096        -0.5537       1.3959
   34      26.0904        0.3232      25.7672         0.4744      25.6160
   37       0.0401       -1.0909       1.1310        -0.9899       1.0300
   38       0.1634       -1.1005       1.2638        -0.6746       0.8380
   40      -0.0109       -1.2077       1.1968        -0.7965       0.7855
 Sum       28.4261       -4.2197      32.6459        -4.4652      32.8913

 Contributions to Isotropic shielding for atom   23 (    25.8905 ppm):
                         Standard Origin              Atomic Origin
 NLMO      Total    Paramagnetic  Diamagnetic   Paramagnetic  Diamagnetic
    1      -1.4524       -2.6987       1.2463        -2.0268       0.5744
    2       0.7758        1.5549      -0.7790        -2.5847       3.3606
    4      -0.6908        0.7105      -1.4014        -1.7709       1.0801
    5      -1.9908       -1.3001      -0.6907        -2.6921       0.7013
    6      27.0260        0.9500      26.0760         1.5462      25.4798
    9      -0.0850       -0.1167       0.0317        -1.1891       1.1041
   13       0.5758        0.8349      -0.2591        -0.6769       1.2527
   44      -0.1230       -1.4086       1.2855        -0.9028       0.7798
 Sum       24.0357       -1.4737      25.5094       -10.2972      34.3328

 Contributions to Isotropic shielding for atom   24 (    25.2666 ppm):
                         Standard Origin              Atomic Origin
 NLMO      Total    Paramagnetic  Diamagnetic   Paramagnetic  Diamagnetic
    2       1.1747        0.7216       0.4531         0.1145       1.0602
    5      -2.0660       -1.9170      -0.1490        -2.8022       0.7362
    6      -0.1010       -0.0010      -0.1000        -1.2308       1.1298
    7      -1.8614       -2.6989       0.8375        -2.5806       0.7192
    8       0.5797        1.2569      -0.6771        -2.2434       2.8231
    9      26.8812        1.1132      25.7680         1.5933      25.2879
   11      -0.1124        0.6064      -0.7188        -1.2201       1.1077
   13       0.4598        0.7372      -0.2774        -0.9125       1.3723
 Sum       24.9547       -0.1816      25.1363        -9.2817      34.2364

 Contributions to Isotropic shielding for atom   25 (    25.6516 ppm):
                         Standard Origin              Atomic Origin
 NLMO      Total    Paramagnetic  Diamagnetic   Paramagnetic  Diamagnetic
    2       1.2100       -0.4566       1.6666        -0.0209       1.2309
    7      -1.7865       -0.9805      -0.8061        -2.4680       0.6815
    8       0.3045       -0.0286       0.3331        -3.0988       3.4032
    9      -0.0532       -1.0170       0.9638        -1.1499       1.0966
   10      -0.8791       -2.4877       1.6087        -1.4371       0.5580
   11      26.5147        1.0846      25.4300         1.3103      25.2044
   14      -0.4607        0.3274      -0.7881        -2.0550       1.5942
   65      -0.2342       -0.4581       0.2239         0.7780      -1.0122
 Sum       24.6154       -4.0165      28.6319        -8.1413      32.7567

 Contributions to Isotropic shielding for atom   26 (    31.6412 ppm):
                         Standard Origin              Atomic Origin
 NLMO      Total    Paramagnetic  Diamagnetic   Paramagnetic  Diamagnetic
   21       1.3273        0.3574       0.9699         0.4117       0.9155
   22      -0.2068        0.3686      -0.5754        -1.3754       1.1686
   25       0.8647        2.0303      -1.1656        -0.1761       1.0408
   26      26.3132       -0.1514      26.4646         0.5068      25.8064
   27       2.0203        1.9981       0.0222         0.1087       1.9117
   29       0.1423       -0.3319       0.4742        -0.8738       1.0161
 Sum       30.4610        4.2710      26.1900        -1.3980      31.8590

 Contributions to Isotropic shielding for atom   27 (    30.9783 ppm):
                         Standard Origin              Atomic Origin
 NLMO      Total    Paramagnetic  Diamagnetic   Paramagnetic  Diamagnetic
   19      -0.1082        0.4049      -0.5131        -2.0079       1.8997
   21       1.5891       -0.2988       1.8878         0.7455       0.8436
   25       1.0489        1.2878      -0.2388         0.0761       0.9728
   26       1.9042        2.2565      -0.3524         0.1170       1.7871
   27      25.7290        0.1545      25.5745         0.4961      25.2329
   30       0.0634       -0.4929       0.5564        -0.9583       1.0217
   65      -0.4773       -0.2387      -0.2387         0.6481      -1.1254
 Sum       29.7491        3.0733      26.6758        -0.8834      30.6325

 Contributions to Isotropic shielding for atom   28 (    32.5208 ppm):
                         Standard Origin              Atomic Origin
 NLMO      Total    Paramagnetic  Diamagnetic   Paramagnetic  Diamagnetic
   23      -0.1472        0.2731      -0.4203        -1.0196       0.8723
   25       1.1703       -0.1129       1.2832         0.2390       0.9313
   28       1.1421       -0.2632       1.4053         0.4706       0.6715
   29      26.8164        0.3755      26.4409         0.7256      26.0908
   30       1.6843        2.4221      -0.7378        -0.1467       1.8310
   32      -0.2414        0.2758      -0.5172        -1.0185       0.7771
   41       0.0340       -1.4206       1.4547        -0.7492       0.7832
 Sum       30.4585        1.5496      28.9088        -1.4988      31.9572

 Contributions to Isotropic shielding for atom   29 (    31.4924 ppm):
                         Standard Origin              Atomic Origin
 NLMO      Total    Paramagnetic  Diamagnetic   Paramagnetic  Diamagnetic
   25       0.8141        1.1479      -0.3338        -0.2512       1.0654
   27       0.1369        0.4032      -0.2662        -0.9682       1.1051
   28       0.7603        1.0572      -0.2969        -0.4739       1.2342
   29       1.5130        1.7242      -0.2113        -0.1711       1.6841
   30      26.3012        0.0691      26.2321         0.7274      25.5738
   32      -0.2532        0.6838      -0.9370        -1.2164       0.9631
 Sum       29.2723        5.0855      24.1868        -2.3534      31.6257

 Contributions to Isotropic shielding for atom   30 (    32.0263 ppm):
                         Standard Origin              Atomic Origin
 NLMO      Total    Paramagnetic  Diamagnetic   Paramagnetic  Diamagnetic
   18       0.0322       -0.3008       0.3330        -1.1960       1.2282
   23      -0.2511        0.1041      -0.3552        -1.2412       0.9901
   33       1.6079       -0.5672       2.1752         1.0278       0.5801
   35       0.5893        2.0754      -1.4860        -0.2155       0.8049
   36      26.2261        0.1424      26.0838         0.4625      25.7637
   37       2.0778        0.8303       1.2474         0.2846       1.7932
   38       0.2440       -1.0273       1.2713        -0.4478       0.6917
   39       0.1411       -0.9913       1.1324        -0.8409       0.9820
 Sum       30.6673        0.2655      30.4017        -2.1664      32.8337

 Contributions to Isotropic shielding for atom   31 (    32.6110 ppm):
                         Standard Origin              Atomic Origin
 NLMO      Total    Paramagnetic  Diamagnetic   Paramagnetic  Diamagnetic
   18      -0.2797       -0.3399       0.0602        -1.3015       1.0218
   33       1.7696       -0.7717       2.5412         1.1140       0.6556
   34       0.0140        0.1237      -0.1096        -1.0419       1.0559
   35       0.5429        1.7488      -1.2058        -0.2814       0.8243
   36       2.0291        0.9328       1.0962         0.2800       1.7490
   37      26.1431        0.2588      25.8843         0.4479      25.6952
   40       0.1678       -1.2112       1.3790        -0.8944       1.0622
 Sum       30.3868        0.7414      29.6454        -1.6773      32.0641

 Contributions to Isotropic shielding for atom   32 (    32.3104 ppm):
                         Standard Origin              Atomic Origin
 NLMO      Total    Paramagnetic  Diamagnetic   Paramagnetic  Diamagnetic
   31      -0.1917        0.2900      -0.4817        -1.1272       0.9354
   32       0.2563       -0.7627       1.0190         0.1306       0.1257
   35       1.3124       -0.1158       1.4282         0.5583       0.7542
   36       0.0475        0.9220      -0.8745        -1.0356       1.0831
   38       0.7144        1.5735      -0.8591         0.0438       0.6706
   39      26.3177       -0.0064      26.3241         0.5351      25.7826
   40       2.0071        2.1926      -0.1855         0.2503       1.7568
   41       0.0386       -0.0090       0.0476        -1.0347       1.0733
 Sum       30.5024        4.0841      26.4182        -1.6794      32.1818

 Contributions to Isotropic shielding for atom   33 (    32.0700 ppm):
                         Standard Origin              Atomic Origin
 NLMO      Total    Paramagnetic  Diamagnetic   Paramagnetic  Diamagnetic
   31      -0.1816        0.3447      -0.5263        -1.2628       1.0812
   35       1.6125       -1.4361       3.0486         0.8686       0.7439
   38       1.1076        0.2933       0.8143         0.4322       0.6754
   39       1.7872        2.6589      -0.8717         0.0085       1.7786
   40      26.1551        0.2093      25.9459         0.4354      25.7197
   42       0.0872       -0.2799       0.3671        -0.9524       1.0397
 Sum       30.5680        1.7901      28.7779        -0.4705      31.0385

 Contributions to Isotropic shielding for atom   34 (    32.2423 ppm):
                         Standard Origin              Atomic Origin
 NLMO      Total    Paramagnetic  Diamagnetic   Paramagnetic  Diamagnetic
   28      -0.4685        0.8419      -1.3104        -1.5019       1.0334
   32       1.5503       -1.4178       2.9681         0.9685       0.5817
   33      -0.2019        0.2611      -0.4630        -1.0378       0.8359
   41      26.8115        0.3820      26.4295         0.8566      25.9549
   42       1.5970        2.5466      -0.9496        -0.2513       1.8484
 Sum       29.2884        2.6139      26.6745        -0.9659      30.2544

 Contributions to Isotropic shielding for atom   35 (    31.4536 ppm):
                         Standard Origin              Atomic Origin
 NLMO      Total    Paramagnetic  Diamagnetic   Paramagnetic  Diamagnetic
   28      -0.1853        0.8442      -1.0295        -0.8229       0.6376
   32       1.3255       -0.1251       1.4505         0.1434       1.1820
   33      -0.1497        0.3049      -0.4546        -1.0197       0.8699
   38       0.4154        1.3742      -0.9588        -0.4538       0.8692
   40       0.1045        0.1130      -0.0084        -0.9541       1.0586
   41       1.3712        2.0178      -0.6466        -0.3264       1.6976
   42      26.3724        0.2299      26.1425         0.7802      25.5921
 Sum       29.2539        4.7589      24.4950        -2.6533      31.9072

 Contributions to Isotropic shielding for atom   36 (    31.0068 ppm):
                         Standard Origin              Atomic Origin
 NLMO      Total    Paramagnetic  Diamagnetic   Paramagnetic  Diamagnetic
    2      -0.8011       -0.3930      -0.4081        -1.6883       0.8873
    4       1.8119       -0.5434       2.3553         0.9403       0.8716
    8       0.5603       -0.1452       0.7055        -0.5309       1.0912
   15      -0.3370        0.2071      -0.5441        -1.2386       0.9016
   18       0.1483        0.2862      -0.1379        -1.2046       1.3529
   43      25.7305        0.2145      25.5160         0.3544      25.3761
   44       1.7909        2.6510      -0.8600        -0.0980       1.8890
   45       2.2289        0.3249       1.9041         0.4033       1.8256
 Sum       31.1327        2.6019      28.5308        -3.0625      34.1952

 Contributions to Isotropic shielding for atom   37 (    30.9846 ppm):
                         Standard Origin              Atomic Origin
 NLMO      Total    Paramagnetic  Diamagnetic   Paramagnetic  Diamagnetic
    1      -1.0046        0.2346      -1.2392        -1.9183       0.9136
    2      -0.7337        0.1186      -0.8522        -2.3453       1.6117
    4       1.0466        0.7823       0.2642         0.2863       0.7603
    6      -0.0162       -1.3317       1.3155        -0.9526       0.9364
   18       0.0777        0.1087      -0.0310        -0.9360       1.0137
   43       2.0470        2.4348      -0.3877         0.0605       1.9865
   44      26.2698       -0.1489      26.4187         0.5262      25.7436
   45       2.1008        2.0478       0.0530         0.1339       1.9669
 Sum       29.7873        4.2462      25.5412        -5.1453      34.9326

 Contributions to Isotropic shielding for atom   38 (    30.9672 ppm):
                         Standard Origin              Atomic Origin
 NLMO      Total    Paramagnetic  Diamagnetic   Paramagnetic  Diamagnetic
    2      -0.7905       -0.5391      -0.2515        -1.7178       0.9273
    4       1.9057       -0.8835       2.7891         1.0318       0.8738
    8       0.5230       -0.2317       0.7547        -0.5598       1.0828
   15      -0.2864        0.1631      -0.4495        -1.1878       0.9014
   18       0.1101        0.1072       0.0029        -1.1796       1.2897
   43       2.1969        0.4627       1.7342         0.3967       1.8002
   44       1.7846        2.3562      -0.5716        -0.0856       1.8702
   45      25.7007        0.2792      25.4215         0.3501      25.3505
 Sum       31.1440        1.7142      29.4298        -2.9520      34.0959
 
 1\1\GINC-GNOSIE-MM\SP\RHF\STO-3G\C16H19N1O2\MBENIDD\30-Apr-2026\0\\# n
 mr=giao hf/sto-3g pop=nbo\\Title Card Required\\0,1\C,0,0.,0.,0.\C,0,1
 .4074,0.,0.\C,0,2.1261,1.194,0.\C,0,1.4482,2.4073,0.0106\C,0,0.0534,2.
 4286,0.0306\C,0,-0.6788,1.2367,0.0043\C,0,-2.1529,1.346,-0.0579\O,0,-0
 .5065,3.6754,0.0364\C,0,-1.8215,3.7179,0.6081\C,0,-2.7637,2.7264,-0.06
 21\C,0,-2.3135,5.1692,0.4647\C,0,-3.6422,5.2822,-0.2824\N,0,-3.5845,4.
 5826,-1.563\C,0,-3.1044,3.1835,-1.4828\C,0,-4.187,2.3453,-2.166\C,0,-4
 .8538,3.3336,-3.1013\C,0,-4.8733,4.5975,-2.2652\O,0,-2.8722,0.3513,-0.
 1301\C,0,-0.706,-1.3289,-0.0194\H,0,-3.6776,2.6655,0.5457\H,0,-1.7231,
 3.4858,1.6781\H,0,-2.2027,3.1283,-2.1083\H,0,1.9567,-0.9403,-0.0089\H,
 0,3.2131,1.1768,-0.0094\H,0,2.0052,3.3411,0.0093\H,0,-2.4424,5.6028,1.
 4643\H,0,-1.5589,5.7864,-0.0401\H,0,-4.4482,4.8876,0.3503\H,0,-3.8625,
 6.3431,-0.4512\H,0,-4.9206,1.9743,-1.4397\H,0,-3.7735,1.4891,-2.7079\H
 ,0,-5.8553,3.0122,-3.4008\H,0,-4.248,3.4744,-4.0046\H,0,-5.7171,4.551,
 -1.5648\H,0,-4.9842,5.4939,-2.8827\H,0,-1.3663,-1.4265,0.848\H,0,0.005
 ,-2.1611,0.0296\H,0,-1.2753,-1.4473,-0.9465\\Version=EM64L-G16RevB.01\
 State=1-A\HF=-811.0561228\RMSD=7.330e-09\Dipole=-0.186985,0.0869782,0.
 3790023\Quadrupole=2.6087734,-2.7942057,0.1854323,-4.609743,0.1720247,
 2.2325859\PG=C01 [X(C16H19N1O2)]\\@


 UNLESS WE CHANGE DIRECTIONS, WE WILL WIND UP WHERE WE ARE HEADED.
     -- CONFUCIUS
 Job cpu time:       0 days  0 hours  3 minutes 39.2 seconds.
 Elapsed time:       0 days  0 hours  1 minutes 56.8 seconds.
 File lengths (MBytes):  RWF=     14 Int=      0 D2E=      0 Chk=      2 Scr=      1
 Normal termination of Gaussian 16 at Thu Apr 30 09:26:29 2026.
