 Entering Gaussian System, Link 0=g16
 Input=3_elaeocarpine_c_7.gjf
 Output=3_elaeocarpine_c_7.log
 Initial command:
 /opt/gaussian/g16/l1.exe "/home/mbenidd/Bureau/Elaeocarpines/HF_NMR/3/3_elaeocarpine_c7/Gau-13174.inp" -scrdir="/home/mbenidd/Bureau/Elaeocarpines/HF_NMR/3/3_elaeocarpine_c7/"
 Entering Link 1 = /opt/gaussian/g16/l1.exe PID=     13176.
  
 Copyright (c) 1988-2017, Gaussian, Inc.  All Rights Reserved.
  
 This is part of the Gaussian(R) 16 program.  It is based on
 the Gaussian(R) 09 system (copyright 2009, Gaussian, Inc.),
 the Gaussian(R) 03 system (copyright 2003, Gaussian, Inc.),
 the Gaussian(R) 98 system (copyright 1998, Gaussian, Inc.),
 the Gaussian(R) 94 system (copyright 1995, Gaussian, Inc.),
 the Gaussian 92(TM) system (copyright 1992, Gaussian, Inc.),
 the Gaussian 90(TM) system (copyright 1990, Gaussian, Inc.),
 the Gaussian 88(TM) system (copyright 1988, Gaussian, Inc.),
 the Gaussian 86(TM) system (copyright 1986, Carnegie Mellon
 University), and the Gaussian 82(TM) system (copyright 1983,
 Carnegie Mellon University). Gaussian is a federally registered
 trademark of Gaussian, Inc.
  
 This software contains proprietary and confidential information,
 including trade secrets, belonging to Gaussian, Inc.
  
 This software is provided under written license and may be
 used, copied, transmitted, or stored only in accord with that
 written license.
  
 The following legend is applicable only to US Government
 contracts under FAR:
  
                    RESTRICTED RIGHTS LEGEND
  
 Use, reproduction and disclosure by the US Government is
 subject to restrictions as set forth in subparagraphs (a)
 and (c) of the Commercial Computer Software - Restricted
 Rights clause in FAR 52.227-19.
  
 Gaussian, Inc.
 340 Quinnipiac St., Bldg. 40, Wallingford CT 06492
  
  
 ---------------------------------------------------------------
 Warning -- This program may not be used in any manner that
 competes with the business of Gaussian, Inc. or will provide
 assistance to any competitor of Gaussian, Inc.  The licensee
 of this program is prohibited from giving any competitor of
 Gaussian, Inc. access to this program.  By using this program,
 the user acknowledges that Gaussian, Inc. is engaged in the
 business of creating and licensing software in the field of
 computational chemistry and represents and warrants to the
 licensee that it is not a competitor of Gaussian, Inc. and that
 it will not use this program in any manner prohibited above.
 ---------------------------------------------------------------
  

 Cite this work as:
 Gaussian 16, Revision B.01,
 M. J. Frisch, G. W. Trucks, H. B. Schlegel, G. E. Scuseria, 
 M. A. Robb, J. R. Cheeseman, G. Scalmani, V. Barone, 
 G. A. Petersson, H. Nakatsuji, X. Li, M. Caricato, A. V. Marenich, 
 J. Bloino, B. G. Janesko, R. Gomperts, B. Mennucci, H. P. Hratchian, 
 J. V. Ortiz, A. F. Izmaylov, J. L. Sonnenberg, D. Williams-Young, 
 F. Ding, F. Lipparini, F. Egidi, J. Goings, B. Peng, A. Petrone, 
 T. Henderson, D. Ranasinghe, V. G. Zakrzewski, J. Gao, N. Rega, 
 G. Zheng, W. Liang, M. Hada, M. Ehara, K. Toyota, R. Fukuda, 
 J. Hasegawa, M. Ishida, T. Nakajima, Y. Honda, O. Kitao, H. Nakai, 
 T. Vreven, K. Throssell, J. A. Montgomery, Jr., J. E. Peralta, 
 F. Ogliaro, M. J. Bearpark, J. J. Heyd, E. N. Brothers, K. N. Kudin, 
 V. N. Staroverov, T. A. Keith, R. Kobayashi, J. Normand, 
 K. Raghavachari, A. P. Rendell, J. C. Burant, S. S. Iyengar, 
 J. Tomasi, M. Cossi, J. M. Millam, M. Klene, C. Adamo, R. Cammi, 
 J. W. Ochterski, R. L. Martin, K. Morokuma, O. Farkas, 
 J. B. Foresman, and D. J. Fox, Gaussian, Inc., Wallingford CT, 2016.
 
 ******************************************
 Gaussian 16:  EM64L-G16RevB.01 20-Dec-2017
                18-May-2026 
 ******************************************
 %nprocshared=4
 Will use up to    4 processors via shared memory.
 ----------------------------
 # nmr=giao hf/sto-3g pop=nbo
 ----------------------------
 1/38=1,172=1/1;
 2/12=2,17=6,18=5,40=1/2;
 3/6=3,11=9,25=1,30=1/1,2,3,8;
 4//1;
 5/5=2,38=5/2;
 8/6=1,10=90,11=11/1;
 10/13=100,45=16/2;
 6/7=2,8=2,9=2,10=2,28=1,40=1,64=1/1,7;
 99/9=1/99;
 -------------------
 Title Card Required
 -------------------
 Symbolic Z-matrix:
 Charge =  0 Multiplicity = 1
 C                     0.        0.        0. 
 C                     1.4068    0.        0. 
 C                     2.1253    1.1954    0. 
 C                     1.448     2.41     -0.0084 
 C                     0.0544    2.4277   -0.0264 
 C                    -0.6751    1.2363    0.0034 
 C                    -2.1442    1.3528    0.0953 
 O                    -0.5268    3.6642   -0.0139 
 C                    -1.7537    3.7057   -0.7509 
 C                    -2.7767    2.6697   -0.2941 
 C                    -2.2792    5.142    -0.637 
 C                    -3.8006    5.2023   -0.6413 
 N                    -4.4436    4.4177    0.4149 
 C                    -3.718     3.1858    0.8015 
 C                    -3.0551    3.4751    2.1574 
 C                    -3.4963    4.8749    2.5478 
 C                    -4.6858    5.158     1.6562 
 O                    -2.8326    0.4066    0.4716 
 C                    -0.7134   -1.3243    0.0175 
 H                    -3.4018    2.4375   -1.1703 
 H                    -1.509     3.5179   -1.807 
 H                    -4.4847    2.4182    0.9774 
 H                     1.9554   -0.9407    0.0087 
 H                     3.2123    1.1776    0.0094 
 H                     2.0044    3.3437   -0.0046 
 H                    -1.8815    5.6338    0.258 
 H                    -1.8898    5.7286   -1.4789 
 H                    -4.1574    4.8141   -1.6043 
 H                    -4.1351    6.2465   -0.6166 
 H                    -1.9642    3.4101    2.1473 
 H                    -3.4144    2.7542    2.9019 
 H                    -2.6906    5.5917    2.3572 
 H                    -3.7515    4.9408    3.6101 
 H                    -4.854     6.2303    1.5106 
 H                    -5.5942    4.7574    2.1233 
 H                    -1.4681   -1.368    -0.7742 
 H                    -0.02     -2.1529   -0.1651 
 H                    -1.1793   -1.4944    0.9929 
 
                          Input orientation:                          
 ---------------------------------------------------------------------
 Center     Atomic      Atomic             Coordinates (Angstroms)
 Number     Number       Type             X           Y           Z
 ---------------------------------------------------------------------
      1          6           0        0.000000    0.000000    0.000000
      2          6           0        1.406800    0.000000    0.000000
      3          6           0        2.125300    1.195400    0.000000
      4          6           0        1.448000    2.410000   -0.008400
      5          6           0        0.054400    2.427700   -0.026400
      6          6           0       -0.675100    1.236300    0.003400
      7          6           0       -2.144200    1.352800    0.095300
      8          8           0       -0.526800    3.664200   -0.013900
      9          6           0       -1.753700    3.705700   -0.750900
     10          6           0       -2.776700    2.669700   -0.294100
     11          6           0       -2.279200    5.142000   -0.637000
     12          6           0       -3.800600    5.202300   -0.641300
     13          7           0       -4.443600    4.417700    0.414900
     14          6           0       -3.718000    3.185800    0.801500
     15          6           0       -3.055100    3.475100    2.157400
     16          6           0       -3.496300    4.874900    2.547800
     17          6           0       -4.685800    5.158000    1.656200
     18          8           0       -2.832600    0.406600    0.471600
     19          6           0       -0.713400   -1.324300    0.017500
     20          1           0       -3.401800    2.437500   -1.170300
     21          1           0       -1.509000    3.517900   -1.807000
     22          1           0       -4.484700    2.418200    0.977400
     23          1           0        1.955400   -0.940700    0.008700
     24          1           0        3.212300    1.177600    0.009400
     25          1           0        2.004400    3.343700   -0.004600
     26          1           0       -1.881500    5.633800    0.258000
     27          1           0       -1.889800    5.728600   -1.478900
     28          1           0       -4.157400    4.814100   -1.604300
     29          1           0       -4.135100    6.246500   -0.616600
     30          1           0       -1.964200    3.410100    2.147300
     31          1           0       -3.414400    2.754200    2.901900
     32          1           0       -2.690600    5.591700    2.357200
     33          1           0       -3.751500    4.940800    3.610100
     34          1           0       -4.854000    6.230300    1.510600
     35          1           0       -5.594200    4.757400    2.123300
     36          1           0       -1.468100   -1.368000   -0.774200
     37          1           0       -0.020000   -2.152900   -0.165100
     38          1           0       -1.179300   -1.494400    0.992900
 ---------------------------------------------------------------------
                    Distance matrix (angstroms):
                    1          2          3          4          5
     1  C    0.000000
     2  C    1.406800   0.000000
     3  C    2.438418   1.394713   0.000000
     4  C    2.811561   2.410367   1.390705   0.000000
     5  C    2.428453   2.779102   2.409956   1.393829   0.000000
     6  C    1.408620   2.421313   2.800701   2.425956   1.397316
     7  C    2.537074   3.801151   4.273463   3.745975   2.450319
     8  O    3.701901   4.143110   3.623369   2.339419   1.366339
     9  C    4.167916   4.927963   4.681036   3.532850   2.329680
    10  C    3.863141   4.971465   5.127344   4.242306   2.854007
    11  C    5.660449   6.358658   5.948196   4.663795   3.631246
    12  C    6.474546   7.388654   7.182117   5.978738   4.789314
    13  N    6.279633   7.342710   7.328425   6.238669   4.938304
    14  C    4.961376   6.087306   6.224809   5.286337   3.935878
    15  C    5.105324   6.053036   6.057058   5.109113   3.941449
    16  C    6.517672   7.368604   7.185568   6.087363   5.022227
    17  C    7.162729   8.152775   8.052098   6.924298   5.723214
    18  O    2.900233   4.284885   5.042359   4.750531   3.559160
    19  C    1.504333   2.499865   3.795710   4.314779   3.830006
    20  H    4.345486   5.516669   5.784570   4.987116   3.640594
    21  H    4.232960   4.913528   4.676258   3.634041   2.608312
    22  H    5.188019   6.443041   6.792838   6.014050   4.648778
    23  H    2.169927   1.089015   2.142864   3.388943   3.867965
    24  H    3.421360   2.155611   1.087186   2.152181   3.396522
    25  H    3.898457   3.396686   2.151704   1.086918   2.154537
    26  H    5.945276   6.528337   5.985015   4.642136   3.756018
    27  H    6.210906   6.772856   6.233625   4.931165   4.097025
    28  H    6.559978   7.530582   7.425705   6.304530   5.091555
    29  H    7.516516   8.373268   8.067615   6.801444   5.699428
    30  H    4.483053   5.253886   5.122480   4.158167   3.124872
    31  H    5.259731   6.265031   6.445088   5.677258   4.551276
    32  H    6.637984   7.322034   6.933739   5.731255   4.819489
    33  H    7.177610   8.003273   7.848415   6.821531   5.833068
    34  H    8.041136   8.960813   8.737434   7.524444   6.396446
    35  H    7.644366   8.726698   8.762815   7.723148   6.477298
    36  H    2.150843   3.276562   4.481398   4.833567   4.157469
    37  H    2.159314   2.588048   3.980036   4.795794   4.583303
    38  H    2.147052   3.147538   4.375072   4.811408   4.236019
                    6          7          8          9         10
     6  C    0.000000
     7  C    1.476575   0.000000
     8  O    2.432487   2.823203   0.000000
     9  C    2.798264   2.530748   1.431843   0.000000
    10  C    2.561223   1.511924   2.475801   1.525939   0.000000
    11  C    4.270567   3.861674   2.375511   1.533650   2.545065
    12  C    5.090535   4.254984   3.671124   2.538035   2.753721
    13  N    4.948963   3.844866   4.011602   3.016885   2.517288
    14  C    3.700913   2.517033   3.328288   2.557091   1.533866
    15  C    3.913610   3.096151   3.338054   3.194531   2.595386
    16  C    5.260471   4.499791   4.104392   3.909617   3.668396
    17  C    5.847837   4.834841   4.724188   4.062083   3.693233
    18  O    2.358478   1.229142   4.020495   3.680026   2.389779
    19  C    2.560925   3.036463   4.992088   5.193608   4.506255
    20  H    3.202397   2.088031   3.332818   2.121429   1.101087
    21  H    3.029626   2.951251   2.049714   1.100225   2.148342
    22  H    4.105924   2.718661   4.266165   3.478942   2.144115
    23  H    3.414511   4.698336   5.231341   5.993617   5.959819
    24  H    3.887848   5.360053   4.490500   5.624100   6.179530
    25  H    3.408947   4.602667   2.551427   3.848548   4.837045
    26  H    4.567081   4.292137   2.405923   2.179858   3.145169
    27  H    4.884001   4.657301   2.875020   2.154213   3.398119
    28  H    5.245166   4.349967   4.127093   2.781118   2.867300
    29  H    6.120303   5.330927   4.477873   3.484934   3.839630
    30  H    3.314135   2.911286   2.607963   2.920831   2.677458
    31  H    4.267211   3.384425   4.203359   4.123860   3.260095
    32  H    5.345290   4.835599   3.744249   3.754339   3.946503
    33  H    6.016298   5.273611   5.016151   4.953282   4.620704
    34  H    6.683928   5.756396   5.256770   4.593457   4.499999
    35  H    6.410122   5.254197   5.607250   4.910859   4.259181
    36  H    2.831235   2.935284   5.175629   5.081785   4.271528
    37  H    3.456042   4.107306   5.841092   6.137758   5.556393
    38  H    2.947889   3.137398   5.296278   5.514691   4.641959
                   11         12         13         14         15
    11  C    0.000000
    12  C    1.522601   0.000000
    13  N    2.513112   1.464447   0.000000
    14  C    2.822436   2.480880   1.481058   0.000000
    15  C    3.345033   3.372197   2.419242   1.536748   0.000000
    16  C    3.419887   3.220271   2.378166   2.439626   1.518720
    17  C    3.324266   2.462529   1.465446   2.357270   2.396359
    18  O    4.894820   5.017401   4.322899   2.935425   3.508151
    19  C    6.685292   7.249919   6.858781   5.475699   5.752997
    20  H    2.976400   2.843062   2.742152   2.132588   3.502913
    21  H    2.144716   3.073677   3.789242   3.434275   4.255435
    22  H    3.858705   3.292324   2.077522   1.099081   2.133821
    23  H    7.439624   8.443369   8.356115   7.060028   7.015790
    24  H    6.803740   8.111867   8.323189   7.258743   7.012326
    25  H    4.688608   6.128442   6.550279   5.781055   5.503640
    26  H    1.095928   2.162840   2.840400   3.108187   3.105647
    27  H    1.097510   2.151679   3.439016   3.874064   4.433832
    28  H    2.137948   1.097895   2.077550   2.938079   4.142267
    29  H    2.159792   1.096747   2.122186   3.398951   4.067202
    30  H    3.294090   3.789543   3.188086   2.222004   1.092881
    31  H    4.417475   4.323958   3.164120   2.165671   1.096847
    32  H    3.055604   3.220983   2.867719   3.043700   2.157029
    33  H    4.499556   4.259718   3.310882   3.312006   2.177978
    34  H    3.525078   2.607127   2.157430   3.326003   3.353434
    35  H    4.330866   3.325350   2.087560   2.781584   2.844729
    36  H    6.561769   6.973311   6.613765   5.318080   5.879495
    37  H    7.651290   8.283639   7.942130   6.565915   6.802957
    38  H    6.921572   7.374796   6.778102   5.327842   5.437887
                   16         17         18         19         20
    16  C    0.000000
    17  C    1.513277   0.000000
    18  O    4.971600   5.235784   0.000000
    19  C    7.251002   7.777243   2.773667   0.000000
    20  H    4.446810   4.127818   2.672897   4.773835   0.000000
    21  H    4.975449   4.977524   4.077269   5.235330   2.270538
    22  H    3.078712   2.829791   2.651755   5.399113   2.405340
    23  H    8.365959   9.165912   4.995442   2.696242   6.442194
    24  H    8.069623   8.996417   6.111373   4.655179   6.835595
    25  H    6.254360   7.128023   5.678899   5.401588   5.604200
    26  H    2.902877   3.169455   5.317315   7.059565   3.816764
    27  H    4.418592   4.239346   5.746043   7.305240   3.634930
    28  H    4.204841   3.320894   5.048813   7.222972   2.531307
    29  H    3.507532   2.579481   6.081539   8.332294   3.918264
    30  H    2.157167   3.271611   3.547267   5.339952   3.744211
    31  H    2.151619   2.991067   3.428713   5.678849   4.084516
    32  H    1.095118   2.158777   5.519141   7.564031   4.785190
    33  H    1.094510   2.176653   5.590486   7.835069   5.407497
    34  H    2.180881   1.095134   6.251485   8.743334   4.866358
    35  H    2.143640   1.097203   5.411470   8.077356   4.586541
    36  H    7.356839   7.671318   2.561851   1.094656   4.286948
    37  H    8.296654   8.862059   3.855794   1.095776   5.789540
    38  H    6.953717   7.549168   2.572733   1.094259   5.007872
                   21         22         23         24         25
    21  H    0.000000
    22  H    4.221020   0.000000
    23  H    5.931100   7.327720   0.000000
    24  H    5.573777   7.856203   2.463127   0.000000
    25  H    3.952590   6.627918   4.284701   2.480163   0.000000
    26  H    2.979935   4.199318   7.616298   6.772468   4.518156
    27  H    2.267124   4.870900   7.840796   6.997004   4.798552
    28  H    2.955545   3.537321   8.549024   8.375001   6.533674
    29  H    3.969724   4.161603   9.441453   8.948179   6.818669
    30  H    3.981873   2.950500   6.234287   6.029165   4.514961
    31  H    5.136879   2.227586   7.131455   7.400363   6.177268
    32  H    4.799728   3.897915   8.353024   7.735675   5.716173
    33  H    6.033111   3.719167   8.951583   8.696047   6.981917
    34  H    5.436231   3.866884  10.002343   9.635797   7.593809
    35  H    5.802799   2.831242   9.692076   9.738480   8.016560
    36  H    4.994033   5.148134   3.537778   5.385188   5.903445
    37  H    6.088590   6.491056   2.324186   4.644399   5.859741
    38  H    5.750765   5.121948   3.331903   5.233833   5.876918
                   26         27         28         29         30
    26  H    0.000000
    27  H    1.739505   0.000000
    28  H    3.052833   2.448274   0.000000
    29  H    2.493800   2.460316   1.740063   0.000000
    30  H    2.919098   4.304684   4.566820   4.516317   0.000000
    31  H    4.199058   5.510251   5.010097   5.009532   1.761450
    32  H    2.250124   3.921184   4.295305   3.370286   2.308916
    33  H    3.900477   5.475808   5.231709   4.440382   2.770788
    34  H    3.280332   4.239728   3.491916   2.245453   4.087769
    35  H    4.246359   5.257533   3.995324   3.442883   3.872040
    36  H    7.089537   7.143960   6.792625   8.069593   5.622412
    37  H    8.017287   8.206111   8.229731   9.364178   6.330409
    38  H    7.200305   7.667225   7.443904   8.440899   5.099297
                   31         32         33         34         35
    31  H    0.000000
    32  H    2.978589   0.000000
    33  H    2.323016   1.766052   0.000000
    34  H    4.011413   2.409324   2.699299   0.000000
    35  H    3.061136   3.030125   2.374816   1.758616   0.000000
    36  H    5.856136   7.729010   8.014796   8.626633   7.933520
    37  H    6.708805   8.571635   8.859842   9.821078   9.168464
    38  H    5.166290   7.372798   7.407952   8.569856   7.736546
                   36         37         38
    36  H    0.000000
    37  H    1.756150   0.000000
    38  H    1.795000   1.765945   0.000000
 Stoichiometry    C16H19NO2
 Framework group  C1[X(C16H19NO2)]
 Deg. of freedom   108
 Full point group                 C1      NOp   1
 Largest Abelian subgroup         C1      NOp   1
 Largest concise Abelian subgroup C1      NOp   1
                         Standard orientation:                         
 ---------------------------------------------------------------------
 Center     Atomic      Atomic             Coordinates (Angstroms)
 Number     Number       Type             X           Y           Z
 ---------------------------------------------------------------------
      1          6           0       -3.117565    0.663245   -0.042577
      2          6           0       -4.108963   -0.259089    0.338890
      3          6           0       -3.784803   -1.585095    0.624990
      4          6           0       -2.464866   -2.011744    0.526010
      5          6           0       -1.473064   -1.115083    0.132203
      6          6           0       -1.782405    0.222491   -0.127981
      7          6           0       -0.652944    1.124608   -0.429269
      8          8           0       -0.202629   -1.615339    0.081007
      9          6           0        0.584788   -1.019130   -0.955662
     10          6           0        0.651678    0.503146   -0.873859
     11          6           0        1.969369   -1.674241   -0.879205
     12          6           0        3.082802   -0.720940   -1.291270
     13          7           0        3.142796    0.517571   -0.512106
     14          6           0        1.831215    1.016525   -0.038467
     15          6           0        1.760124    0.703397    1.464361
     16          6           0        3.099720    0.086087    1.826192
     17          6           0        4.006388    0.447543    0.669771
     18          8           0       -0.771046    2.343791   -0.327119
     19          6           0       -3.532355    2.082333   -0.320344
     20          1           0        0.804816    0.866835   -1.901805
     21          1           0        0.129926   -1.301030   -1.916978
     22          1           0        1.863542    2.110775   -0.136197
     23          1           0       -5.147868    0.056121    0.424172
     24          1           0       -4.561845   -2.282753    0.927401
     25          1           0       -2.207740   -3.043387    0.751820
     26          1           0        2.159545   -2.069950    0.124938
     27          1           0        1.981364   -2.552975   -1.536632
     28          1           0        2.925995   -0.442609   -2.341659
     29          1           0        4.047538   -1.242453   -1.278546
     30          1           0        0.944736    0.032216    1.745516
     31          1           0        1.619600    1.634857    2.026240
     32          1           0        3.002501   -1.000961    1.916514
     33          1           0        3.478184    0.463555    2.781302
     34          1           0        4.848951   -0.244343    0.566331
     35          1           0        4.435442    1.442748    0.841046
     36          1           0       -3.144768    2.416642   -1.287962
     37          1           0       -4.622944    2.176104   -0.370792
     38          1           0       -3.181869    2.745679    0.476232
 ---------------------------------------------------------------------
 Rotational constants (GHZ):           0.8217015           0.2707399           0.2380953
 Standard basis: STO-3G (5D, 7F)
 There are   114 symmetry adapted cartesian basis functions of A   symmetry.
 There are   114 symmetry adapted basis functions of A   symmetry.
   114 basis functions,   342 primitive gaussians,   114 cartesian basis functions
    69 alpha electrons       69 beta electrons
       nuclear repulsion energy      1507.3241465116 Hartrees.
 NAtoms=   38 NActive=   38 NUniq=   38 SFac= 1.00D+00 NAtFMM=   60 NAOKFM=F Big=F
 Integral buffers will be    131072 words long.
 Raffenetti 1 integral format.
 Two-electron integral symmetry is turned on.
 One-electron integrals computed using PRISM.
 NBasis=   114 RedAO= T EigKep=  1.73D-01  NBF=   114
 NBsUse=   114 1.00D-06 EigRej= -1.00D+00 NBFU=   114
 ExpMin= 1.69D-01 ExpMax= 1.31D+02 ExpMxC= 1.31D+02 IAcc=3 IRadAn=         5 AccDes= 0.00D+00
 Harris functional with IExCor=  205 and IRadAn=       5 diagonalized for initial guess.
 HarFok:  IExCor=  205 AccDes= 0.00D+00 IRadAn=         5 IDoV= 1 UseB2=F ITyADJ=14
 ICtDFT=  3500011 ScaDFX=  1.000000  1.000000  1.000000  1.000000
 FoFCou: FMM=F IPFlag=           0 FMFlag=      100000 FMFlg1=           0
         NFxFlg=           0 DoJE=T BraDBF=F KetDBF=T FulRan=T
         wScrn=  0.000000 ICntrl=       500 IOpCl=  0 I1Cent=   200000004 NGrid=           0
         NMat0=    1 NMatS0=      1 NMatT0=    0 NMatD0=    1 NMtDS0=    0 NMtDT0=    0
 Petite list used in FoFCou.
 Requested convergence on RMS density matrix=1.00D-08 within 128 cycles.
 Requested convergence on MAX density matrix=1.00D-06.
 Requested convergence on             energy=1.00D-06.
 No special actions if energy rises.
 Integral accuracy reduced to 1.0D-05 until final iterations.
 Initial convergence to 1.0D-05 achieved.  Increase integral accuracy.
 SCF Done:  E(RHF) =  -811.047214719     A.U. after   15 cycles
            NFock= 15  Conv=0.47D-08     -V/T= 2.0093
 Range of M.O.s used for correlation:     1   114
 NBasis=   114 NAE=    69 NBE=    69 NFC=     0 NFV=     0
 NROrb=    114 NOA=    69 NOB=    69 NVA=    45 NVB=    45
          Differentiating once with respect to magnetic field using GIAOs.
          Electric field/nuclear overlap derivatives assumed to be zero.
 FoFCou: FMM=F IPFlag=           0 FMFlag=      100000 FMFlg1=           0
         NFxFlg=           0 DoJE=F BraDBF=F KetDBF=T FulRan=T
         wScrn=  0.000000 ICntrl=      6100 IOpCl=  0 I1Cent=           7 NGrid=          38
         NMat0=    1 NMatS0=      1 NMatT0=    0 NMatD0=    1 NMtDS0=    0 NMtDT0=    0
 Symmetry not used in FoFCou.
 FoFJK:  IHMeth= 1 ICntrl=    6127 DoSepK=F KAlg= 0 I1Cent=           0 FoldK=F
 IRaf=         1 NMat=       1 IRICut=       1 DoRegI=T DoRafI=F ISym2E= 0 IDoP0=0 IntGTp=1.
          There are     3 degrees of freedom in the 1st order CPHF.  IDoFFX=0 NUNeed=     3.
      3 vectors produced by pass  0 Test12= 1.04D-13 3.33D-08 XBig12= 2.32D+01 1.46D+00.
 AX will form     3 AO Fock derivatives at one time.
      3 vectors produced by pass  1 Test12= 1.04D-13 3.33D-08 XBig12= 1.39D-01 2.05D-01.
      3 vectors produced by pass  2 Test12= 1.04D-13 3.33D-08 XBig12= 4.52D-03 2.52D-02.
      3 vectors produced by pass  3 Test12= 1.04D-13 3.33D-08 XBig12= 1.35D-04 2.36D-03.
      3 vectors produced by pass  4 Test12= 1.04D-13 3.33D-08 XBig12= 1.93D-06 1.65D-04.
      3 vectors produced by pass  5 Test12= 1.04D-13 3.33D-08 XBig12= 2.22D-08 1.94D-05.
      3 vectors produced by pass  6 Test12= 1.04D-13 3.33D-08 XBig12= 3.96D-10 2.93D-06.
      3 vectors produced by pass  7 Test12= 1.04D-13 3.33D-08 XBig12= 6.22D-12 3.11D-07.
      1 vectors produced by pass  8 Test12= 1.04D-13 3.33D-08 XBig12= 1.04D-13 3.52D-08.
 InvSVY:  IOpt=1 It=  1 EMax= 4.44D-16
 Solved reduced A of dimension    25 with     3 vectors.
 Calculating GIAO nuclear magnetic shielding tensors.
 SCF GIAO Magnetic shielding tensor (ppm):
      1  C    Isotropic =   114.1997   Anisotropy =   169.2798
   XX=    76.3419   YX=    21.9221   ZX=    15.7412
   XY=    26.4164   YY=    49.7926   ZY=    40.0518
   XZ=    15.4609   YZ=    33.8323   ZZ=   216.4647
   Eigenvalues:    32.0791    83.4671   227.0529
      2  C    Isotropic =   123.4731   Anisotropy =   144.7183
   XX=    44.9375   YX=    29.1139   ZX=    20.5084
   XY=    25.3315   YY=   113.3046   ZY=    22.4956
   XZ=    22.7076   YZ=    16.5216   ZZ=   212.1772
   Eigenvalues:    34.2792   116.1881   219.9519
      3  C    Isotropic =   117.3732   Anisotropy =   168.5185
   XX=    64.8135   YX=   -32.4236   ZX=    33.9558
   XY=   -33.8428   YY=    74.4020   ZY=    44.9784
   XZ=    35.5518   YZ=    44.1091   ZZ=   212.9042
   Eigenvalues:    20.0757   102.3250   229.7188
      4  C    Isotropic =   130.8737   Anisotropy =   147.0556
   XX=   116.0369   YX=    19.7172   ZX=    13.9654
   XY=    16.8113   YY=    60.0876   ZY=    41.5179
   XZ=    16.6382   YZ=    36.3557   ZZ=   216.4967
   Eigenvalues:    47.8492   115.8612   228.9108
      5  C    Isotropic =   106.1931   Anisotropy =   132.3932
   XX=    54.6802   YX=    20.5367   ZX=    18.9685
   XY=     8.8618   YY=    77.9706   ZY=    26.6970
   XZ=    12.2062   YZ=    25.8908   ZZ=   185.9285
   Eigenvalues:    47.5135    76.6106   194.4552
      6  C    Isotropic =   130.1095   Anisotropy =   151.8593
   XX=    81.7153   YX=   -15.5700   ZX=    24.5636
   XY=   -16.7691   YY=    85.6941   ZY=    30.7163
   XZ=    16.9412   YZ=    30.3003   ZZ=   222.9190
   Eigenvalues:    59.4907    99.4887   231.3490
      7  C    Isotropic =    91.6468   Anisotropy =   142.4172
   XX=   -24.2321   YX=   -20.1309   ZX=    64.2375
   XY=   -18.0461   YY=   133.8359   ZY=     3.1956
   XZ=    69.5652   YZ=     6.6626   ZZ=   165.3366
   Eigenvalues:   -47.6003   135.9491   186.5916
      8  O    Isotropic =   347.3125   Anisotropy =   100.2870
   XX=   327.8360   YX=   -28.0683   ZX=    49.5800
   XY=   -47.5971   YY=   315.4793   ZY=    39.6716
   XZ=    22.4537   YZ=     4.9978   ZZ=   398.6223
   Eigenvalues:   270.4374   357.3297   414.1705
      9  C    Isotropic =   187.8873   Anisotropy =    45.2918
   XX=   194.3313   YX=     6.3361   ZX=   -20.3474
   XY=    10.3855   YY=   177.8074   ZY=    -9.4324
   XZ=   -20.9107   YZ=   -11.9643   ZZ=   191.5230
   Eigenvalues:   170.7145   174.8655   218.0818
     10  C    Isotropic =   210.7067   Anisotropy =    11.8264
   XX=   217.0828   YX=    -4.9865   ZX=     3.1590
   XY=    -3.5409   YY=   203.0489   ZY=     0.5160
   XZ=     0.7694   YZ=     3.0776   ZZ=   211.9885
   Eigenvalues:   201.3688   212.1604   218.5910
     11  C    Isotropic =   218.6805   Anisotropy =    16.5427
   XX=   228.5064   YX=    -0.4073   ZX=    -3.0666
   XY=    -3.4936   YY=   214.9273   ZY=    -2.2563
   XZ=    -5.4880   YZ=    -2.2495   ZZ=   212.6079
   Eigenvalues:   210.0502   216.2824   229.7090
     12  C    Isotropic =   203.2661   Anisotropy =    38.6227
   XX=   194.6790   YX=    -0.3504   ZX=    -0.5915
   XY=    -0.6320   YY=   213.4809   ZY=    22.4211
   XZ=    -0.2642   YZ=    18.7965   ZZ=   201.6383
   Eigenvalues:   186.1168   194.6670   229.0145
     13  N    Isotropic =   294.5713   Anisotropy =    68.2263
   XX=   330.4552   YX=   -27.1581   ZX=    11.6173
   XY=   -24.7874   YY=   255.3797   ZY=    13.1272
   XZ=    12.3437   YZ=    12.0857   ZZ=   297.8790
   Eigenvalues:   242.7996   300.8589   340.0555
     14  C    Isotropic =   193.6838   Anisotropy =    39.3700
   XX=   213.7120   YX=   -13.6833   ZX=    -5.3617
   XY=   -18.1751   YY=   173.3175   ZY=    -4.7909
   XZ=    -5.9353   YZ=    -2.1740   ZZ=   194.0220
   Eigenvalues:   166.8084   194.3126   219.9305
     15  C    Isotropic =   213.8255   Anisotropy =    29.0764
   XX=   220.4776   YX=    -9.0506   ZX=     2.6541
   XY=    -8.7215   YY=   191.1821   ZY=    -6.3299
   XZ=     5.1889   YZ=    -5.8917   ZZ=   229.8169
   Eigenvalues:   188.1265   220.1403   233.2098
     16  C    Isotropic =   215.6059   Anisotropy =    20.3186
   XX=   227.6406   YX=    -5.8116   ZX=    -3.9446
   XY=    -7.7307   YY=   197.5743   ZY=   -11.4491
   XZ=    -0.6655   YZ=    -4.7455   ZZ=   221.6027
   Eigenvalues:   193.5989   224.0671   229.1516
     17  C    Isotropic =   195.9644   Anisotropy =    53.0273
   XX=   207.4957   YX=    -7.9696   ZX=    14.6708
   XY=     2.4057   YY=   163.9163   ZY=    -2.4501
   XZ=    22.7014   YZ=    -0.0612   ZZ=   216.4811
   Eigenvalues:   163.7394   192.8379   231.3159
     18  O    Isotropic =  -350.5301   Anisotropy =  1281.8785
   XX=  -322.6727   YX=    48.4969   ZX=   251.5202
   XY=    69.8864   YY= -1143.0703   ZY=  -120.6718
   XZ=   280.9627   YZ=   -82.8295   ZZ=   414.1528
   Eigenvalues: -1157.0613  -398.5845   504.0556
     19  C    Isotropic =   218.4945   Anisotropy =    23.4292
   XX=   216.7774   YX=    -4.8740   ZX=    -0.2425
   XY=    -4.9272   YY=   231.5005   ZY=    -6.2160
   XZ=     1.8933   YZ=    -4.8064   ZZ=   207.2055
   Eigenvalues:   206.0085   215.3610   234.1139
     20  H    Isotropic =    30.9065   Anisotropy =    13.1188
   XX=    27.4916   YX=    -1.0859   ZX=     2.4463
   XY=    -0.4599   YY=    28.3484   ZY=    -5.2222
   XZ=    -1.4408   YZ=    -5.8449   ZZ=    36.8794
   Eigenvalues:    25.5121    27.5549    39.6523
     21  H    Isotropic =    31.0921   Anisotropy =    10.8791
   XX=    30.2485   YX=     1.3113   ZX=     3.9309
   XY=     0.9419   YY=    27.4700   ZY=     3.0387
   XZ=     1.2337   YZ=     5.4174   ZZ=    35.5578
   Eigenvalues:    25.6631    29.2683    38.3448
     22  H    Isotropic =    30.4823   Anisotropy =    14.5523
   XX=    27.0006   YX=    -2.1425   ZX=     0.4898
   XY=    -0.0896   YY=    39.9397   ZY=    -1.9601
   XZ=     2.1792   YZ=    -0.8638   ZZ=    24.5065
   Eigenvalues:    23.8800    27.3830    40.1838
     23  H    Isotropic =    25.8629   Anisotropy =     5.8296
   XX=    27.4108   YX=     1.0003   ZX=    -1.0914
   XY=     1.0998   YY=    28.5177   ZY=    -1.9202
   XZ=    -0.9055   YZ=    -2.0101   ZZ=    21.6604
   Eigenvalues:    21.0586    26.7808    29.7493
     24  H    Isotropic =    25.3090   Anisotropy =     3.7832
   XX=    27.4504   YX=    -0.5237   ZX=    -0.7155
   XY=    -0.8314   YY=    26.6226   ZY=    -1.1010
   XZ=    -0.7946   YZ=    -1.3667   ZZ=    21.8540
   Eigenvalues:    21.4202    26.6756    27.8311
     25  H    Isotropic =    25.7336   Anisotropy =     7.3351
   XX=    28.9049   YX=     1.8236   ZX=    -1.7803
   XY=     1.4746   YY=    27.2404   ZY=    -1.9283
   XZ=    -1.5846   YZ=    -2.3971   ZZ=    21.0554
   Eigenvalues:    20.2227    26.3544    30.6236
     26  H    Isotropic =    31.7806   Anisotropy =     8.8409
   XX=    29.8001   YX=    -1.0266   ZX=     2.1177
   XY=    -0.5368   YY=    32.7440   ZY=    -4.0124
   XZ=     2.6904   YZ=    -4.4780   ZZ=    32.7979
   Eigenvalues:    27.6931    29.9743    37.6745
     27  H    Isotropic =    31.6343   Anisotropy =    15.6113
   XX=    28.8225   YX=    -1.1862   ZX=    -0.8433
   XY=    -0.8360   YY=    37.5514   ZY=     7.1134
   XZ=    -1.4730   YZ=     8.0959   ZZ=    28.5291
   Eigenvalues:    24.1421    28.7190    42.0418
     28  H    Isotropic =    31.6003   Anisotropy =    13.7621
   XX=    27.9391   YX=     0.2874   ZX=    -1.7560
   XY=     0.5889   YY=    26.5452   ZY=     0.3734
   XZ=    -3.0539   YZ=    -0.8765   ZZ=    40.3166
   Eigenvalues:    26.4018    27.6241    40.7751
     29  H    Isotropic =    31.8265   Anisotropy =    14.2542
   XX=    37.7838   YX=    -4.2544   ZX=    -2.7733
   XY=    -5.5613   YY=    30.1281   ZY=     3.5343
   XZ=    -2.6826   YZ=     3.2531   ZZ=    27.5677
   Eigenvalues:    25.1847    28.9656    41.3294
     30  H    Isotropic =    32.6353   Anisotropy =    10.3911
   XX=    37.2527   YX=     4.4161   ZX=    -1.9884
   XY=     5.7033   YY=    27.9165   ZY=    -0.2952
   XZ=     1.0697   YZ=    -1.5890   ZZ=    32.7367
   Eigenvalues:    25.6351    32.7080    39.5626
     31  H    Isotropic =    32.3638   Anisotropy =    14.6947
   XX=    28.7088   YX=    -3.7351   ZX=    -1.2319
   XY=    -3.1472   YY=    34.4025   ZY=     7.1193
   XZ=     0.8265   YZ=     7.7754   ZZ=    33.9799
   Eigenvalues:    25.1351    29.7960    42.1602
     32  H    Isotropic =    32.1788   Anisotropy =    10.7030
   XX=    28.7935   YX=    -0.4783   ZX=     1.3617
   XY=    -0.1974   YY=    37.2924   ZY=    -4.0738
   XZ=     2.3574   YZ=    -4.0924   ZZ=    30.4505
   Eigenvalues:    27.0758    30.1464    39.3141
     33  H    Isotropic =    32.2735   Anisotropy =    16.5222
   XX=    30.2122   YX=     0.6718   ZX=     5.3197
   XY=     0.7900   YY=    26.3503   ZY=     2.6744
   XZ=     6.0295   YZ=     2.8861   ZZ=    40.2578
   Eigenvalues:    25.7600    27.7722    43.2882
     34  H    Isotropic =    31.8229   Anisotropy =    14.0135
   XX=    39.6850   YX=    -4.6301   ZX=     0.2504
   XY=    -4.1750   YY=    27.7186   ZY=     1.1647
   XZ=     1.6616   YZ=     0.3300   ZZ=    28.0650
   Eigenvalues:    25.8155    28.4880    41.1652
     35  H    Isotropic =    31.3131   Anisotropy =    15.1455
   XX=    33.4080   YX=     7.3551   ZX=     1.6672
   XY=     7.4426   YY=    33.1035   ZY=     1.4312
   XZ=     3.0355   YZ=     3.0476   ZZ=    27.4277
   Eigenvalues:    25.8529    26.6762    41.4101
     36  H    Isotropic =    31.4289   Anisotropy =     9.8216
   XX=    30.5749   YX=    -0.6243   ZX=    -3.0797
   XY=    -0.5339   YY=    30.7940   ZY=    -4.3629
   XZ=    -0.8449   YZ=    -7.3272   ZZ=    32.9178
   Eigenvalues:    25.3496    30.9605    37.9766
     37  H    Isotropic =    31.0282   Anisotropy =    12.3423
   XX=    38.5973   YX=    -2.1035   ZX=     0.0460
   XY=    -2.5772   YY=    30.0716   ZY=    -1.3199
   XZ=     0.9785   YZ=    -2.1497   ZZ=    24.4156
   Eigenvalues:    23.9244    29.9037    39.2564
     38  H    Isotropic =    30.6635   Anisotropy =    11.5658
   XX=    29.0688   YX=     1.4273   ZX=     1.4817
   XY=     0.8935   YY=    34.9906   ZY=     4.2901
   XZ=     0.9898   YZ=     6.9413   ZZ=    27.9311
   Eigenvalues:    24.7622    28.8543    38.3740
 End of Minotr F.D. properties file   721 does not exist.
 End of Minotr F.D. properties file   722 does not exist.
 End of Minotr F.D. properties file   788 does not exist.

 **********************************************************************

            Population analysis using the SCF Density.

 **********************************************************************

 Orbital symmetries:
       Occupied  (A) (A) (A) (A) (A) (A) (A) (A) (A) (A) (A) (A)
                 (A) (A) (A) (A) (A) (A) (A) (A) (A) (A) (A) (A)
                 (A) (A) (A) (A) (A) (A) (A) (A) (A) (A) (A) (A)
                 (A) (A) (A) (A) (A) (A) (A) (A) (A) (A) (A) (A)
                 (A) (A) (A) (A) (A) (A) (A) (A) (A) (A) (A) (A)
                 (A) (A) (A) (A) (A) (A) (A) (A) (A)
       Virtual   (A) (A) (A) (A) (A) (A) (A) (A) (A) (A) (A) (A)
                 (A) (A) (A) (A) (A) (A) (A) (A) (A) (A) (A) (A)
                 (A) (A) (A) (A) (A) (A) (A) (A) (A) (A) (A) (A)
                 (A) (A) (A) (A) (A) (A) (A) (A) (A)
 The electronic state is 1-A.
 Alpha  occ. eigenvalues --  -20.29872 -20.26403 -15.30780 -11.11886 -11.11421
 Alpha  occ. eigenvalues --  -11.09764 -11.07699 -11.07686 -11.06721 -11.06588
 Alpha  occ. eigenvalues --  -11.05348 -11.05242 -11.04454 -11.04115 -11.03886
 Alpha  occ. eigenvalues --  -11.03690 -11.03082 -11.02465 -11.02167  -1.34719
 Alpha  occ. eigenvalues --   -1.31649  -1.19375  -1.10010  -1.04899  -1.02531
 Alpha  occ. eigenvalues --   -0.99304  -0.98253  -0.95572  -0.91843  -0.88492
 Alpha  occ. eigenvalues --   -0.84400  -0.80502  -0.78672  -0.75204  -0.74333
 Alpha  occ. eigenvalues --   -0.71689  -0.68291  -0.65372  -0.65159  -0.62060
 Alpha  occ. eigenvalues --   -0.61346  -0.60670  -0.58028  -0.56493  -0.56249
 Alpha  occ. eigenvalues --   -0.55267  -0.54755  -0.53073  -0.52901  -0.51792
 Alpha  occ. eigenvalues --   -0.51369  -0.49872  -0.48877  -0.48546  -0.47327
 Alpha  occ. eigenvalues --   -0.46195  -0.45494  -0.45195  -0.44300  -0.42820
 Alpha  occ. eigenvalues --   -0.42613  -0.41732  -0.40452  -0.38351  -0.36585
 Alpha  occ. eigenvalues --   -0.31726  -0.27443  -0.27218  -0.24950
 Alpha virt. eigenvalues --    0.21157   0.26653   0.34143   0.48662   0.51139
 Alpha virt. eigenvalues --    0.53682   0.54870   0.55714   0.57244   0.58966
 Alpha virt. eigenvalues --    0.60365   0.60689   0.61689   0.62819   0.63720
 Alpha virt. eigenvalues --    0.66488   0.67000   0.68059   0.68707   0.69587
 Alpha virt. eigenvalues --    0.70355   0.71955   0.72870   0.73163   0.73559
 Alpha virt. eigenvalues --    0.73969   0.74266   0.74848   0.75519   0.77662
 Alpha virt. eigenvalues --    0.78187   0.79363   0.79755   0.80967   0.82541
 Alpha virt. eigenvalues --    0.85016   0.85489   0.86364   0.87167   0.87382
 Alpha virt. eigenvalues --    0.91013   0.93235   1.00479   1.11714   1.13640
          Condensed to atoms (all electrons):
               1          2          3          4          5          6
     1  C    4.757920   0.505726  -0.028725  -0.010027  -0.028037   0.497510
     2  C    0.505726   4.805320   0.504172  -0.031317  -0.011400  -0.031325
     3  C   -0.028725   0.504172   4.759672   0.508676  -0.029380  -0.009656
     4  C   -0.010027  -0.031317   0.508676   4.806481   0.499490  -0.032913
     5  C   -0.028037  -0.011400  -0.029380   0.499490   4.754962   0.490925
     6  C    0.497510  -0.031325  -0.009656  -0.032913   0.490925   4.870787
     7  C   -0.023602   0.000781   0.000019   0.000829  -0.030400   0.390668
     8  O    0.000256   0.000008   0.000353  -0.026815   0.293203  -0.017933
     9  C    0.000031   0.000000  -0.000021   0.001601  -0.040847  -0.007295
    10  C    0.000615  -0.000007  -0.000000  -0.000040  -0.004429  -0.034715
    11  C    0.000000   0.000000   0.000000  -0.000015   0.001694  -0.000003
    12  C   -0.000000  -0.000000  -0.000000   0.000000  -0.000015  -0.000000
    13  N    0.000000  -0.000000  -0.000000  -0.000000  -0.000000  -0.000002
    14  C   -0.000004   0.000000   0.000000   0.000000   0.000025   0.000534
    15  C   -0.000000   0.000000   0.000000  -0.000000  -0.000029   0.000003
    16  C   -0.000000  -0.000000  -0.000000   0.000000  -0.000000   0.000000
    17  C   -0.000000   0.000000   0.000000   0.000000   0.000000   0.000000
    18  O   -0.001038  -0.000004   0.000000  -0.000002   0.000314  -0.028349
    19  C    0.381443  -0.029936   0.000873   0.000011   0.000726  -0.024410
    20  H   -0.000021   0.000000  -0.000000   0.000002   0.000053   0.000791
    21  H   -0.000005  -0.000001  -0.000000   0.000162  -0.003314   0.000405
    22  H   -0.000000   0.000000   0.000000   0.000000  -0.000003   0.000021
    23  H   -0.025061   0.394108  -0.026689   0.001413   0.000049   0.001271
    24  H    0.001321  -0.024831   0.393599  -0.025133   0.001372   0.000008
    25  H    0.000036   0.001376  -0.024556   0.393407  -0.025333   0.001253
    26  H    0.000000   0.000000   0.000000  -0.000004   0.000098   0.000001
    27  H   -0.000000  -0.000000  -0.000000   0.000001  -0.000031  -0.000000
    28  H    0.000000  -0.000000  -0.000000   0.000000   0.000000  -0.000000
    29  H    0.000000   0.000000   0.000000  -0.000000   0.000000   0.000000
    30  H    0.000002  -0.000000  -0.000000  -0.000003  -0.000063  -0.000104
    31  H   -0.000000   0.000000  -0.000000   0.000000   0.000000  -0.000000
    32  H    0.000000  -0.000000  -0.000000   0.000000   0.000000   0.000000
    33  H   -0.000000   0.000000   0.000000  -0.000000   0.000000   0.000000
    34  H    0.000000  -0.000000  -0.000000  -0.000000   0.000000  -0.000000
    35  H    0.000000  -0.000000  -0.000000  -0.000000   0.000000  -0.000000
    36  H   -0.021091   0.000955  -0.000023   0.000002   0.000006  -0.002439
    37  H   -0.020644  -0.005478   0.000057  -0.000000  -0.000016   0.001135
    38  H   -0.021149   0.000382  -0.000022   0.000003  -0.000005  -0.001310
               7          8          9         10         11         12
     1  C   -0.023602   0.000256   0.000031   0.000615   0.000000  -0.000000
     2  C    0.000781   0.000008   0.000000  -0.000007   0.000000  -0.000000
     3  C    0.000019   0.000353  -0.000021  -0.000000   0.000000  -0.000000
     4  C    0.000829  -0.026815   0.001601  -0.000040  -0.000015   0.000000
     5  C   -0.030400   0.293203  -0.040847  -0.004429   0.001694  -0.000015
     6  C    0.390668  -0.017933  -0.007295  -0.034715  -0.000003  -0.000000
     7  C    4.760560  -0.002467  -0.020560   0.356910   0.000593   0.000032
     8  O   -0.002467   7.801518   0.261397  -0.015290  -0.020622   0.000263
     9  C   -0.020560   0.261397   4.740642   0.356595   0.359258  -0.021004
    10  C    0.356910  -0.015290   0.356595   4.824337  -0.022564  -0.008297
    11  C    0.000593  -0.020622   0.359258  -0.022564   4.775802   0.359880
    12  C    0.000032   0.000263  -0.021004  -0.008297   0.359880   4.699716
    13  N    0.000380   0.000001  -0.001994  -0.016207  -0.020643   0.329419
    14  C   -0.021032   0.000124  -0.021489   0.359408  -0.007061  -0.030723
    15  C   -0.001746  -0.000284  -0.001169  -0.020753   0.000254   0.000644
    16  C    0.000009   0.000002   0.000023   0.000741  -0.000440   0.000539
    17  C   -0.000009  -0.000000   0.000030   0.001031   0.000202  -0.034401
    18  O    0.432511   0.000001   0.000279  -0.025497  -0.000001  -0.000000
    19  C   -0.002733  -0.000001  -0.000000   0.000009  -0.000000   0.000000
    20  H   -0.023167   0.000560  -0.022881   0.377600   0.000175  -0.000403
    21  H   -0.000030  -0.019268   0.378430  -0.027580  -0.024701   0.000519
    22  H   -0.002162  -0.000008   0.001195  -0.024407  -0.000017   0.001652
    23  H   -0.000014   0.000000  -0.000000   0.000000   0.000000  -0.000000
    24  H    0.000001  -0.000005   0.000000  -0.000000  -0.000000   0.000000
    25  H   -0.000019  -0.001066   0.000034   0.000000  -0.000003   0.000000
    26  H   -0.000018  -0.001900  -0.021317   0.000264   0.380451  -0.021547
    27  H   -0.000012   0.000362  -0.021944   0.001195   0.382320  -0.020348
    28  H    0.000004  -0.000001  -0.002185  -0.000475  -0.027513   0.380676
    29  H    0.000000  -0.000005   0.001199   0.000072  -0.021826   0.383393
    30  H   -0.000124   0.000228   0.000074  -0.004103  -0.000033  -0.000030
    31  H    0.000052   0.000004   0.000000   0.000964  -0.000003  -0.000019
    32  H    0.000000   0.000009   0.000007  -0.000015  -0.000783   0.000035
    33  H   -0.000000  -0.000000  -0.000001  -0.000011   0.000010  -0.000022
    34  H    0.000000   0.000000  -0.000001  -0.000023   0.000093  -0.005256
    35  H    0.000000  -0.000000  -0.000001  -0.000012  -0.000038   0.001795
    36  H   -0.000111  -0.000000  -0.000000  -0.000003  -0.000000   0.000000
    37  H    0.000019   0.000000   0.000000   0.000000   0.000000  -0.000000
    38  H   -0.000033   0.000000  -0.000000  -0.000003   0.000000  -0.000000
              13         14         15         16         17         18
     1  C    0.000000  -0.000004  -0.000000  -0.000000  -0.000000  -0.001038
     2  C   -0.000000   0.000000   0.000000  -0.000000   0.000000  -0.000004
     3  C   -0.000000   0.000000   0.000000  -0.000000   0.000000   0.000000
     4  C   -0.000000   0.000000  -0.000000   0.000000   0.000000  -0.000002
     5  C   -0.000000   0.000025  -0.000029  -0.000000   0.000000   0.000314
     6  C   -0.000002   0.000534   0.000003   0.000000   0.000000  -0.028349
     7  C    0.000380  -0.021032  -0.001746   0.000009  -0.000009   0.432511
     8  O    0.000001   0.000124  -0.000284   0.000002  -0.000000   0.000001
     9  C   -0.001994  -0.021489  -0.001169   0.000023   0.000030   0.000279
    10  C   -0.016207   0.359408  -0.020753   0.000741   0.001031  -0.025497
    11  C   -0.020643  -0.007061   0.000254  -0.000440   0.000202  -0.000001
    12  C    0.329419  -0.030723   0.000644   0.000539  -0.034401  -0.000000
    13  N    6.508366   0.328364  -0.030226  -0.033298   0.333643  -0.000000
    14  C    0.328364   4.737282   0.358082  -0.032929  -0.046324  -0.001398
    15  C   -0.030226   0.358082   4.785386   0.364847  -0.036382   0.000027
    16  C   -0.033298  -0.032929   0.364847   4.769384   0.362850   0.000000
    17  C    0.333643  -0.046324  -0.036382   0.362850   4.715619  -0.000000
    18  O   -0.000000  -0.001398   0.000027   0.000000  -0.000000   7.854720
    19  C    0.000000  -0.000000  -0.000000  -0.000000  -0.000000  -0.001320
    20  H   -0.001175  -0.022357   0.001222  -0.000022   0.000005  -0.001377
    21  H    0.000006   0.001273  -0.000004   0.000000   0.000001  -0.000005
    22  H   -0.027543   0.384195  -0.027541   0.000745   0.000862   0.000448
    23  H    0.000000  -0.000000  -0.000000  -0.000000  -0.000000   0.000000
    24  H   -0.000000   0.000000  -0.000000   0.000000  -0.000000  -0.000000
    25  H    0.000000  -0.000000  -0.000000   0.000000  -0.000000   0.000000
    26  H   -0.000997   0.000193  -0.000323  -0.000901   0.000228   0.000000
    27  H    0.000862   0.000032   0.000001   0.000008  -0.000020   0.000000
    28  H   -0.027221   0.000233  -0.000053  -0.000051   0.001841   0.000000
    29  H   -0.017030   0.001455  -0.000024   0.000060  -0.005975   0.000000
    30  H    0.000704  -0.018980   0.383437  -0.021125   0.001526   0.000001
    31  H    0.000939  -0.021524   0.384106  -0.022145   0.000665  -0.000021
    32  H    0.000068   0.000748  -0.022359   0.383932  -0.022470   0.000000
    33  H    0.001073   0.001385  -0.019809   0.383997  -0.019527   0.000000
    34  H   -0.015211   0.001701   0.001505  -0.020470   0.383087   0.000000
    35  H   -0.025621   0.000271  -0.000837  -0.026046   0.381582   0.000000
    36  H   -0.000000  -0.000000  -0.000000   0.000000  -0.000000  -0.000151
    37  H    0.000000   0.000000  -0.000000  -0.000000  -0.000000   0.000052
    38  H   -0.000000   0.000000   0.000000  -0.000000   0.000000  -0.000446
              19         20         21         22         23         24
     1  C    0.381443  -0.000021  -0.000005  -0.000000  -0.025061   0.001321
     2  C   -0.029936   0.000000  -0.000001   0.000000   0.394108  -0.024831
     3  C    0.000873  -0.000000  -0.000000   0.000000  -0.026689   0.393599
     4  C    0.000011   0.000002   0.000162   0.000000   0.001413  -0.025133
     5  C    0.000726   0.000053  -0.003314  -0.000003   0.000049   0.001372
     6  C   -0.024410   0.000791   0.000405   0.000021   0.001271   0.000008
     7  C   -0.002733  -0.023167  -0.000030  -0.002162  -0.000014   0.000001
     8  O   -0.000001   0.000560  -0.019268  -0.000008   0.000000  -0.000005
     9  C   -0.000000  -0.022881   0.378430   0.001195  -0.000000   0.000000
    10  C    0.000009   0.377600  -0.027580  -0.024407   0.000000  -0.000000
    11  C   -0.000000   0.000175  -0.024701  -0.000017   0.000000  -0.000000
    12  C    0.000000  -0.000403   0.000519   0.001652  -0.000000   0.000000
    13  N    0.000000  -0.001175   0.000006  -0.027543   0.000000  -0.000000
    14  C   -0.000000  -0.022357   0.001273   0.384195  -0.000000   0.000000
    15  C   -0.000000   0.001222  -0.000004  -0.027541  -0.000000  -0.000000
    16  C   -0.000000  -0.000022   0.000000   0.000745  -0.000000   0.000000
    17  C   -0.000000   0.000005   0.000001   0.000862  -0.000000  -0.000000
    18  O   -0.001320  -0.001377  -0.000005   0.000448   0.000000  -0.000000
    19  C    4.713451   0.000000  -0.000000   0.000000  -0.004144  -0.000016
    20  H    0.000000   0.625465  -0.005569  -0.003235  -0.000000   0.000000
    21  H   -0.000000  -0.005569   0.649226  -0.000038  -0.000000   0.000000
    22  H    0.000000  -0.003235  -0.000038   0.634611  -0.000000  -0.000000
    23  H   -0.004144  -0.000000  -0.000000  -0.000000   0.604131  -0.003733
    24  H   -0.000016   0.000000   0.000000  -0.000000  -0.003733   0.593783
    25  H    0.000000   0.000000   0.000001  -0.000000  -0.000032  -0.003695
    26  H   -0.000000  -0.000007   0.001764  -0.000001   0.000000  -0.000000
    27  H   -0.000000  -0.000017  -0.006734   0.000002  -0.000000   0.000000
    28  H   -0.000000  -0.000546   0.000227   0.000070   0.000000   0.000000
    29  H   -0.000000   0.000008  -0.000027  -0.000036   0.000000  -0.000000
    30  H    0.000000   0.000048  -0.000003   0.001611   0.000000  -0.000000
    31  H    0.000000  -0.000030   0.000000  -0.007422  -0.000000   0.000000
    32  H    0.000000   0.000000  -0.000000  -0.000026   0.000000   0.000000
    33  H   -0.000000   0.000001   0.000000  -0.000023  -0.000000  -0.000000
    34  H    0.000000  -0.000000  -0.000000  -0.000027   0.000000  -0.000000
    35  H    0.000000  -0.000001   0.000000   0.000372   0.000000  -0.000000
    36  H    0.380846   0.000001   0.000000   0.000000   0.000061   0.000000
    37  H    0.382746  -0.000000   0.000000  -0.000000   0.000189  -0.000002
    38  H    0.380693   0.000000  -0.000000   0.000000   0.000076   0.000000
              25         26         27         28         29         30
     1  C    0.000036   0.000000  -0.000000   0.000000   0.000000   0.000002
     2  C    0.001376   0.000000  -0.000000  -0.000000   0.000000  -0.000000
     3  C   -0.024556   0.000000  -0.000000  -0.000000   0.000000  -0.000000
     4  C    0.393407  -0.000004   0.000001   0.000000  -0.000000  -0.000003
     5  C   -0.025333   0.000098  -0.000031   0.000000   0.000000  -0.000063
     6  C    0.001253   0.000001  -0.000000  -0.000000   0.000000  -0.000104
     7  C   -0.000019  -0.000018  -0.000012   0.000004   0.000000  -0.000124
     8  O   -0.001066  -0.001900   0.000362  -0.000001  -0.000005   0.000228
     9  C    0.000034  -0.021317  -0.021944  -0.002185   0.001199   0.000074
    10  C    0.000000   0.000264   0.001195  -0.000475   0.000072  -0.004103
    11  C   -0.000003   0.380451   0.382320  -0.027513  -0.021826  -0.000033
    12  C    0.000000  -0.021547  -0.020348   0.380676   0.383393  -0.000030
    13  N    0.000000  -0.000997   0.000862  -0.027221  -0.017030   0.000704
    14  C   -0.000000   0.000193   0.000032   0.000233   0.001455  -0.018980
    15  C   -0.000000  -0.000323   0.000001  -0.000053  -0.000024   0.383437
    16  C    0.000000  -0.000901   0.000008  -0.000051   0.000060  -0.021125
    17  C   -0.000000   0.000228  -0.000020   0.001841  -0.005975   0.001526
    18  O    0.000000   0.000000   0.000000   0.000000   0.000000   0.000001
    19  C    0.000000  -0.000000  -0.000000  -0.000000  -0.000000   0.000000
    20  H    0.000000  -0.000007  -0.000017  -0.000546   0.000008   0.000048
    21  H    0.000001   0.001764  -0.006734   0.000227  -0.000027  -0.000003
    22  H   -0.000000  -0.000001   0.000002   0.000070  -0.000036   0.001611
    23  H   -0.000032   0.000000  -0.000000   0.000000   0.000000   0.000000
    24  H   -0.003695  -0.000000   0.000000   0.000000  -0.000000  -0.000000
    25  H    0.589372  -0.000001   0.000000  -0.000000  -0.000000   0.000000
    26  H   -0.000001   0.621461  -0.023543   0.002003  -0.002515  -0.000078
    27  H    0.000000  -0.023543   0.631051  -0.002385  -0.001839   0.000001
    28  H   -0.000000   0.002003  -0.002385   0.644511  -0.023862   0.000002
    29  H   -0.000000  -0.002515  -0.001839  -0.023862   0.621977   0.000002
    30  H    0.000000  -0.000078   0.000001   0.000002   0.000002   0.626695
    31  H   -0.000000   0.000008  -0.000000   0.000000   0.000001  -0.023761
    32  H    0.000000  -0.000510   0.000011  -0.000001   0.000045  -0.006450
    33  H   -0.000000   0.000017  -0.000000   0.000001  -0.000004   0.001011
    34  H    0.000000   0.000033  -0.000007   0.000076  -0.000322  -0.000042
    35  H   -0.000000  -0.000005   0.000001  -0.000033   0.000097  -0.000009
    36  H   -0.000000   0.000000   0.000000   0.000000  -0.000000   0.000000
    37  H    0.000000   0.000000  -0.000000   0.000000   0.000000   0.000000
    38  H   -0.000000  -0.000000  -0.000000  -0.000000   0.000000  -0.000000
              31         32         33         34         35         36
     1  C   -0.000000   0.000000  -0.000000   0.000000   0.000000  -0.021091
     2  C    0.000000  -0.000000   0.000000  -0.000000  -0.000000   0.000955
     3  C   -0.000000  -0.000000   0.000000  -0.000000  -0.000000  -0.000023
     4  C    0.000000   0.000000  -0.000000  -0.000000  -0.000000   0.000002
     5  C    0.000000   0.000000   0.000000   0.000000   0.000000   0.000006
     6  C   -0.000000   0.000000   0.000000  -0.000000  -0.000000  -0.002439
     7  C    0.000052   0.000000  -0.000000   0.000000   0.000000  -0.000111
     8  O    0.000004   0.000009  -0.000000   0.000000  -0.000000  -0.000000
     9  C    0.000000   0.000007  -0.000001  -0.000001  -0.000001  -0.000000
    10  C    0.000964  -0.000015  -0.000011  -0.000023  -0.000012  -0.000003
    11  C   -0.000003  -0.000783   0.000010   0.000093  -0.000038  -0.000000
    12  C   -0.000019   0.000035  -0.000022  -0.005256   0.001795   0.000000
    13  N    0.000939   0.000068   0.001073  -0.015211  -0.025621  -0.000000
    14  C   -0.021524   0.000748   0.001385   0.001701   0.000271  -0.000000
    15  C    0.384106  -0.022359  -0.019809   0.001505  -0.000837  -0.000000
    16  C   -0.022145   0.383932   0.383997  -0.020470  -0.026046   0.000000
    17  C    0.000665  -0.022470  -0.019527   0.383087   0.381582  -0.000000
    18  O   -0.000021   0.000000   0.000000   0.000000   0.000000  -0.000151
    19  C    0.000000   0.000000  -0.000000   0.000000   0.000000   0.380846
    20  H   -0.000030   0.000000   0.000001  -0.000000  -0.000001   0.000001
    21  H    0.000000  -0.000000   0.000000  -0.000000   0.000000   0.000000
    22  H   -0.007422  -0.000026  -0.000023  -0.000027   0.000372   0.000000
    23  H   -0.000000   0.000000  -0.000000   0.000000   0.000000   0.000061
    24  H    0.000000   0.000000  -0.000000  -0.000000  -0.000000   0.000000
    25  H   -0.000000   0.000000  -0.000000   0.000000  -0.000000  -0.000000
    26  H    0.000008  -0.000510   0.000017   0.000033  -0.000005   0.000000
    27  H   -0.000000   0.000011  -0.000000  -0.000007   0.000001   0.000000
    28  H    0.000000  -0.000001   0.000001   0.000076  -0.000033   0.000000
    29  H    0.000001   0.000045  -0.000004  -0.000322   0.000097  -0.000000
    30  H   -0.023761  -0.006450   0.001011  -0.000042  -0.000009   0.000000
    31  H    0.634889   0.001891  -0.006009  -0.000020   0.000129  -0.000000
    32  H    0.001891   0.639995  -0.023709  -0.004379   0.001984   0.000000
    33  H   -0.006009  -0.023709   0.628786   0.000480  -0.004460   0.000000
    34  H   -0.000020  -0.004379   0.000480   0.622355  -0.024167   0.000000
    35  H    0.000129   0.001984  -0.004460  -0.024167   0.637922   0.000000
    36  H   -0.000000   0.000000   0.000000   0.000000   0.000000   0.611464
    37  H    0.000000  -0.000000  -0.000000   0.000000   0.000000  -0.022233
    38  H    0.000000  -0.000000   0.000000  -0.000000  -0.000000  -0.018559
              37         38
     1  C   -0.020644  -0.021149
     2  C   -0.005478   0.000382
     3  C    0.000057  -0.000022
     4  C   -0.000000   0.000003
     5  C   -0.000016  -0.000005
     6  C    0.001135  -0.001310
     7  C    0.000019  -0.000033
     8  O    0.000000   0.000000
     9  C    0.000000  -0.000000
    10  C    0.000000  -0.000003
    11  C    0.000000   0.000000
    12  C   -0.000000  -0.000000
    13  N    0.000000  -0.000000
    14  C    0.000000   0.000000
    15  C   -0.000000   0.000000
    16  C   -0.000000  -0.000000
    17  C   -0.000000   0.000000
    18  O    0.000052  -0.000446
    19  C    0.382746   0.380693
    20  H   -0.000000   0.000000
    21  H    0.000000  -0.000000
    22  H   -0.000000   0.000000
    23  H    0.000189   0.000076
    24  H   -0.000002   0.000000
    25  H    0.000000  -0.000000
    26  H    0.000000  -0.000000
    27  H   -0.000000  -0.000000
    28  H    0.000000  -0.000000
    29  H    0.000000   0.000000
    30  H    0.000000  -0.000000
    31  H    0.000000   0.000000
    32  H   -0.000000  -0.000000
    33  H   -0.000000   0.000000
    34  H    0.000000  -0.000000
    35  H    0.000000  -0.000000
    36  H   -0.022233  -0.018559
    37  H    0.624009  -0.021442
    38  H   -0.021442   0.602252
 Mulliken charges:
               1
     1  C    0.034545
     2  C   -0.078528
     3  C   -0.048347
     4  C   -0.085807
     5  C    0.130386
     6  C   -0.064855
     7  C    0.184870
     8  O   -0.252625
     9  C    0.081911
    10  C   -0.075308
    11  C   -0.114465
    12  C   -0.016497
    13  N   -0.286655
    14  C    0.048518
    15  C   -0.117975
    16  C   -0.109708
    17  C   -0.018062
    18  O   -0.228743
    19  C   -0.178236
    20  H    0.074879
    21  H    0.055264
    22  H    0.066705
    23  H    0.058377
    24  H    0.067330
    25  H    0.069226
    26  H    0.067144
    27  H    0.061033
    28  H    0.054682
    29  H    0.065156
    30  H    0.059567
    31  H    0.057306
    32  H    0.051975
    33  H    0.056816
    34  H    0.060598
    35  H    0.057078
    36  H    0.071276
    37  H    0.061608
    38  H    0.079563
 Sum of Mulliken charges =  -0.00000
 Mulliken charges with hydrogens summed into heavy atoms:
               1
     1  C    0.034545
     2  C   -0.020151
     3  C    0.018983
     4  C   -0.016582
     5  C    0.130386
     6  C   -0.064855
     7  C    0.184870
     8  O   -0.252625
     9  C    0.137175
    10  C   -0.000429
    11  C    0.013712
    12  C    0.103341
    13  N   -0.286655
    14  C    0.115223
    15  C   -0.001102
    16  C   -0.000917
    17  C    0.099614
    18  O   -0.228743
    19  C    0.034211
 Electronic spatial extent (au):  <R**2>=           4872.0996
 Charge=             -0.0000 electrons
 Dipole moment (field-independent basis, Debye):
    X=             -0.2968    Y=             -1.7009    Z=             -0.2453  Tot=              1.7439
 Quadrupole moment (field-independent basis, Debye-Ang):
   XX=           -101.0902   YY=           -110.4164   ZZ=           -103.8983
   XY=             -2.4680   XZ=              2.0806   YZ=              2.3859
 Traceless Quadrupole moment (field-independent basis, Debye-Ang):
   XX=              4.0448   YY=             -5.2814   ZZ=              1.2367
   XY=             -2.4680   XZ=              2.0806   YZ=              2.3859
 Octapole moment (field-independent basis, Debye-Ang**2):
  XXX=            -22.1082  YYY=            -10.8462  ZZZ=             -7.5193  XYY=             -0.1257
  XXY=            -13.0252  XXZ=             14.0965  XZZ=              3.2227  YZZ=              2.5747
  YYZ=              3.0634  XYZ=              9.5445
 Hexadecapole moment (field-independent basis, Debye-Ang**3):
 XXXX=          -4333.6154 YYYY=          -1185.0465 ZZZZ=           -586.5326 XXXY=            -56.5872
 XXXZ=             18.0129 YYYX=             17.3211 YYYZ=              0.5468 ZZZX=              3.4221
 ZZZY=             -1.0921 XXYY=           -912.1075 XXZZ=           -860.2340 YYZZ=           -282.6298
 XXYZ=              7.5519 YYXZ=             -5.8945 ZZXY=             -6.8295
 N-N= 1.507324146512D+03 E-N=-4.909797667961D+03  KE= 8.035996975923D+02
 ******************************Gaussian NBO Version 3.1******************************
             N A T U R A L   A T O M I C   O R B I T A L   A N D
          N A T U R A L   B O N D   O R B I T A L   A N A L Y S I S
 ******************************Gaussian NBO Version 3.1******************************
       /RESON  / : Allow strongly delocalized NBO set
       /NLMO   / : Form Natural Localized Molecular Orbitals
       /NMR /    : Analyze NMR Sheilding Tensor 

 Analyzing the SCF density

 Job title: Title Card Required                                             

 Storage needed:     43472 in NPA,     53775 in NBO,    102144 in NLMO ( 104850000 available)
 GSVD:  LWork=      -13908 too small for GESVD, short by       66690 words or       66690 for optimal perf.


 NATURAL POPULATIONS:  Natural atomic orbital occupancies 
                                                          
   NAO  Atom  No  lang   Type(AO)    Occupancy      Energy
 ----------------------------------------------------------
     1    C    1  S      Cor( 1S)     1.99991     -10.98494
     2    C    1  S      Val( 2S)     1.08077      -0.20100
     3    C    1  px     Val( 2p)     0.95663       0.15835
     4    C    1  py     Val( 2p)     0.95118       0.14261
     5    C    1  pz     Val( 2p)     0.93556       0.02851

     6    C    2  S      Cor( 1S)     1.99995     -10.94921
     7    C    2  S      Val( 2S)     1.08036      -0.18747
     8    C    2  px     Val( 2p)     0.97881       0.14597
     9    C    2  py     Val( 2p)     0.97354       0.14656
    10    C    2  pz     Val( 2p)     1.03901       0.00587

    11    C    3  S      Cor( 1S)     1.99994     -10.96547
    12    C    3  S      Val( 2S)     1.08012      -0.19073
    13    C    3  px     Val( 2p)     0.98123       0.14161
    14    C    3  py     Val( 2p)     0.98383       0.13547
    15    C    3  pz     Val( 2p)     0.96298       0.01746

    16    C    4  S      Cor( 1S)     1.99994     -10.95050
    17    C    4  S      Val( 2S)     1.07722      -0.18725
    18    C    4  px     Val( 2p)     0.97467       0.14687
    19    C    4  py     Val( 2p)     0.98903       0.13411
    20    C    4  pz     Val( 2p)     1.05264      -0.00023

    21    C    5  S      Cor( 1S)     1.99978     -11.03237
    22    C    5  S      Val( 2S)     1.05736      -0.21290
    23    C    5  px     Val( 2p)     0.82944       0.15843
    24    C    5  py     Val( 2p)     0.95644       0.13635
    25    C    5  pz     Val( 2p)     0.97206      -0.00739

    26    C    6  S      Cor( 1S)     1.99991     -10.96185
    27    C    6  S      Val( 2S)     1.08505      -0.20680
    28    C    6  px     Val( 2p)     0.97755       0.14036
    29    C    6  py     Val( 2p)     0.97141       0.13375
    30    C    6  pz     Val( 2p)     1.09238      -0.01691

    31    C    7  S      Cor( 1S)     1.99996     -11.05812
    32    C    7  S      Val( 2S)     1.07473      -0.24411
    33    C    7  px     Val( 2p)     0.93611       0.10131
    34    C    7  py     Val( 2p)     0.85063       0.17596
    35    C    7  pz     Val( 2p)     0.89611      -0.00180

    36    O    8  S      Cor( 1S)     1.99999     -20.20724
    37    O    8  S      Val( 2S)     1.73223      -1.02153
    38    O    8  px     Val( 2p)     1.23791      -0.09692
    39    O    8  py     Val( 2p)     1.71596      -0.31153
    40    O    8  pz     Val( 2p)     1.57198      -0.25010

    41    C    9  S      Cor( 1S)     1.99988     -11.06287
    42    C    9  S      Val( 2S)     1.08662      -0.24340
    43    C    9  px     Val( 2p)     0.93442       0.06029
    44    C    9  py     Val( 2p)     0.93768       0.07851
    45    C    9  pz     Val( 2p)     0.88856       0.08453

    46    C   10  S      Cor( 1S)     1.99996     -11.00803
    47    C   10  S      Val( 2S)     1.10350      -0.23600
    48    C   10  px     Val( 2p)     0.99372       0.06455
    49    C   10  py     Val( 2p)     0.97597       0.07513
    50    C   10  pz     Val( 2p)     1.02034       0.05653

    51    C   11  S      Cor( 1S)     1.99996     -10.99046
    52    C   11  S      Val( 2S)     1.08985      -0.21051
    53    C   11  px     Val( 2p)     0.96946       0.07956
    54    C   11  py     Val( 2p)     1.00042       0.07449
    55    C   11  pz     Val( 2p)     1.03627       0.06683

    56    C   12  S      Cor( 1S)     1.99993     -11.01694
    57    C   12  S      Val( 2S)     1.07150      -0.20083
    58    C   12  px     Val( 2p)     1.00151       0.07212
    59    C   12  py     Val( 2p)     0.90553       0.10960
    60    C   12  pz     Val( 2p)     0.98412       0.07180

    61    N   13  S      Cor( 1S)     1.99999     -15.24363
    62    N   13  S      Val( 2S)     1.44033      -0.59197
    63    N   13  px     Val( 2p)     1.14057       0.00369
    64    N   13  py     Val( 2p)     1.38183      -0.08698
    65    N   13  pz     Val( 2p)     1.31252      -0.05572

    66    C   14  S      Cor( 1S)     1.99993     -11.02263
    67    C   14  S      Val( 2S)     1.08618      -0.21404
    68    C   14  px     Val( 2p)     0.87279       0.11894
    69    C   14  py     Val( 2p)     1.00393       0.07463
    70    C   14  pz     Val( 2p)     0.94073       0.09810

    71    C   15  S      Cor( 1S)     1.99997     -10.97404
    72    C   15  S      Val( 2S)     1.08851      -0.19473
    73    C   15  px     Val( 2p)     0.99591       0.09011
    74    C   15  py     Val( 2p)     1.02022       0.08645
    75    C   15  pz     Val( 2p)     0.98400       0.08680

    76    C   16  S      Cor( 1S)     1.99998     -10.97463
    77    C   16  S      Val( 2S)     1.07998      -0.18757
    78    C   16  px     Val( 2p)     0.98062       0.08629
    79    C   16  py     Val( 2p)     1.01520       0.08870
    80    C   16  pz     Val( 2p)     1.00212       0.09214

    81    C   17  S      Cor( 1S)     1.99994     -11.00614
    82    C   17  S      Val( 2S)     1.07408      -0.19329
    83    C   17  px     Val( 2p)     0.96059       0.09751
    84    C   17  py     Val( 2p)     1.02821       0.07314
    85    C   17  pz     Val( 2p)     0.90208       0.10303

    86    O   18  S      Cor( 1S)     1.99999     -20.11440
    87    O   18  S      Val( 2S)     1.80613      -1.06171
    88    O   18  px     Val( 2p)     1.85163      -0.33080
    89    O   18  py     Val( 2p)     1.36136      -0.11753
    90    O   18  pz     Val( 2p)     1.22052      -0.12656

    91    C   19  S      Cor( 1S)     1.99997     -10.97716
    92    C   19  S      Val( 2S)     1.07795      -0.18759
    93    C   19  px     Val( 2p)     1.03354       0.07395
    94    C   19  py     Val( 2p)     0.99475       0.07962
    95    C   19  pz     Val( 2p)     1.04080       0.07192

    96    H   20  S      Val( 1S)     0.94590       0.05386

    97    H   21  S      Val( 1S)     0.98138       0.03310

    98    H   22  S      Val( 1S)     0.96605       0.07144

    99    H   23  S      Val( 1S)     0.96712       0.06576

   100    H   24  S      Val( 1S)     0.96089       0.06028

   101    H   25  S      Val( 1S)     0.95570       0.07139

   102    H   26  S      Val( 1S)     0.95407       0.06902

   103    H   27  S      Val( 1S)     0.95926       0.06124

   104    H   28  S      Val( 1S)     0.97313       0.06178

   105    H   29  S      Val( 1S)     0.96077       0.05770

   106    H   30  S      Val( 1S)     0.96104       0.07215

   107    H   31  S      Val( 1S)     0.96264       0.07211

   108    H   32  S      Val( 1S)     0.96761       0.06998

   109    H   33  S      Val( 1S)     0.96236       0.07045

   110    H   34  S      Val( 1S)     0.96464       0.06019

   111    H   35  S      Val( 1S)     0.97032       0.06918

   112    H   36  S      Val( 1S)     0.94485       0.07764

   113    H   37  S      Val( 1S)     0.95494       0.07276

   114    H   38  S      Val( 1S)     0.93697       0.08388


 Summary of Natural Population Analysis:                  
                                                          
                                       Natural Population 
                Natural  -----------------------------------------------
    Atom  No    Charge         Core      Valence    Rydberg      Total
 -----------------------------------------------------------------------
      C    1    0.07595      1.99991     3.92414    0.00000     5.92405
      C    2   -0.07166      1.99995     4.07172    0.00000     6.07166
      C    3   -0.00810      1.99994     4.00816    0.00000     6.00810
      C    4   -0.09350      1.99994     4.09356    0.00000     6.09350
      C    5    0.18493      1.99978     3.81529    0.00000     5.81507
      C    6   -0.12630      1.99991     4.12639    0.00000     6.12630
      C    7    0.24246      1.99996     3.75758    0.00000     5.75754
      O    8   -0.25807      1.99999     6.25808    0.00000     8.25807
      C    9    0.15284      1.99988     3.84728    0.00000     5.84716
      C   10   -0.09348      1.99996     4.09353    0.00000     6.09348
      C   11   -0.09595      1.99996     4.09599    0.00000     6.09595
      C   12    0.03741      1.99993     3.96266    0.00000     5.96259
      N   13   -0.27524      1.99999     5.27525    0.00000     7.27524
      C   14    0.09644      1.99993     3.90363    0.00000     5.90356
      C   15   -0.08861      1.99997     4.08864    0.00000     6.08861
      C   16   -0.07791      1.99998     4.07792    0.00000     6.07791
      C   17    0.03510      1.99994     3.96496    0.00000     5.96490
      O   18   -0.23963      1.99999     6.23964    0.00000     8.23963
      C   19   -0.14702      1.99997     4.14705    0.00000     6.14702
      H   20    0.05410      0.00000     0.94590    0.00000     0.94590
      H   21    0.01862      0.00000     0.98138    0.00000     0.98138
      H   22    0.03395      0.00000     0.96605    0.00000     0.96605
      H   23    0.03288      0.00000     0.96712    0.00000     0.96712
      H   24    0.03911      0.00000     0.96089    0.00000     0.96089
      H   25    0.04430      0.00000     0.95570    0.00000     0.95570
      H   26    0.04593      0.00000     0.95407    0.00000     0.95407
      H   27    0.04074      0.00000     0.95926    0.00000     0.95926
      H   28    0.02687      0.00000     0.97313    0.00000     0.97313
      H   29    0.03923      0.00000     0.96077    0.00000     0.96077
      H   30    0.03896      0.00000     0.96104    0.00000     0.96104
      H   31    0.03736      0.00000     0.96264    0.00000     0.96264
      H   32    0.03239      0.00000     0.96761    0.00000     0.96761
      H   33    0.03764      0.00000     0.96236    0.00000     0.96236
      H   34    0.03536      0.00000     0.96464    0.00000     0.96464
      H   35    0.02968      0.00000     0.97032    0.00000     0.97032
      H   36    0.05515      0.00000     0.94485    0.00000     0.94485
      H   37    0.04506      0.00000     0.95494    0.00000     0.95494
      H   38    0.06303      0.00000     0.93697    0.00000     0.93697
 =======================================================================
   * Total *   -0.00000     37.99889   100.00111    0.00000   138.00000

                                 Natural Population      
 --------------------------------------------------------
   Core                      37.99889 ( 99.9971% of  38)
   Valence                  100.00111 (100.0011% of 100)
   Natural Minimal Basis    138.00000 (100.0000% of 138)
   Natural Rydberg Basis      0.00000 (  0.0000% of 138)
 --------------------------------------------------------

    Atom  No          Natural Electron Configuration
 ----------------------------------------------------------------------------
      C    1      [core]2S( 1.08)2p( 2.84)
      C    2      [core]2S( 1.08)2p( 2.99)
      C    3      [core]2S( 1.08)2p( 2.93)
      C    4      [core]2S( 1.08)2p( 3.02)
      C    5      [core]2S( 1.06)2p( 2.76)
      C    6      [core]2S( 1.09)2p( 3.04)
      C    7      [core]2S( 1.07)2p( 2.68)
      O    8      [core]2S( 1.73)2p( 4.53)
      C    9      [core]2S( 1.09)2p( 2.76)
      C   10      [core]2S( 1.10)2p( 2.99)
      C   11      [core]2S( 1.09)2p( 3.01)
      C   12      [core]2S( 1.07)2p( 2.89)
      N   13      [core]2S( 1.44)2p( 3.83)
      C   14      [core]2S( 1.09)2p( 2.82)
      C   15      [core]2S( 1.09)2p( 3.00)
      C   16      [core]2S( 1.08)2p( 3.00)
      C   17      [core]2S( 1.07)2p( 2.89)
      O   18      [core]2S( 1.81)2p( 4.43)
      C   19      [core]2S( 1.08)2p( 3.07)
      H   20            1S( 0.95)
      H   21            1S( 0.98)
      H   22            1S( 0.97)
      H   23            1S( 0.97)
      H   24            1S( 0.96)
      H   25            1S( 0.96)
      H   26            1S( 0.95)
      H   27            1S( 0.96)
      H   28            1S( 0.97)
      H   29            1S( 0.96)
      H   30            1S( 0.96)
      H   31            1S( 0.96)
      H   32            1S( 0.97)
      H   33            1S( 0.96)
      H   34            1S( 0.96)
      H   35            1S( 0.97)
      H   36            1S( 0.94)
      H   37            1S( 0.95)
      H   38            1S( 0.94)


 NATURAL BOND ORBITAL ANALYSIS:

                       Occupancies       Lewis Structure    Low   High
           Occ.    -------------------  -----------------   occ   occ
  Cycle   Thresh.   Lewis   Non-Lewis     CR  BD  3C  LP    (L)   (NL)   Dev
 =============================================================================
   1(1)    1.90   134.39736   3.60264     19  43   0   7     3      3    0.45
   2(2)    1.90   134.39736   3.60264     19  43   0   7     3      3    0.45
   3(1)    1.80   134.33893   3.66107     19  42   0   8     3      3    0.45
   4(2)    1.80   134.33893   3.66107     19  42   0   8     3      3    0.45
   5(1)    1.70   134.33893   3.66107     19  42   0   8     3      3    0.45
   6(2)    1.70   134.33893   3.66107     19  42   0   8     3      3    0.45
   7(1)    1.60   135.51635   2.48365     19  44   0   6     1      3    0.43
   8(2)    1.60   136.09744   1.90256     19  45   0   5     0      3    0.45
   9(3)    1.60   136.13160   1.86840     19  45   0   5     0      3    0.43
  10(4)    1.60   136.09744   1.90256     19  45   0   5     0      3    0.45
  11(5)    1.60   136.13160   1.86840     19  45   0   5     0      3    0.43
  12(1)    1.50   136.13160   1.86840     19  45   0   5     0      3    0.43
  13(2)    1.50   136.09744   1.90256     19  45   0   5     0      3    0.45
  14(3)    1.50   136.13160   1.86840     19  45   0   5     0      3    0.43
  15(1)    1.60   136.13160   1.86840     19  45   0   5     0      3    0.43
 -----------------------------------------------------------------------------

 Structure accepted: RESONANCE keyword permits strongly delocalized structure

 --------------------------------------------------------
   Core                     37.99889 ( 99.997% of  38)
   Valence Lewis            98.13272 ( 98.133% of 100)
  ==================       ============================
   Total Lewis             136.13160 ( 98.646% of 138)
  -----------------------------------------------------
   Valence non-Lewis         1.86840 (  1.354% of 138)
   Rydberg non-Lewis         0.00000 (  0.000% of 138)
  ==================       ============================
   Total non-Lewis           1.86840 (  1.354% of 138)
 --------------------------------------------------------


       (Occupancy)   Bond orbital/ Coefficients/ Hybrids
 ---------------------------------------------------------------------------------
     1. (1.98537) BD ( 1) C   1 - C   2  
                ( 50.01%)   0.7071* C   1 s( 33.77%)p 1.96( 66.23%)
                                            0.0000  0.5811 -0.5805 -0.5307  0.2090
                ( 49.99%)   0.7071* C   2 s( 34.46%)p 1.90( 65.54%)
                                            0.0001  0.5870  0.5666  0.5315 -0.2280
     2. (1.65689) BD ( 2) C   1 - C   2  
                ( 45.77%)   0.6765* C   1 s(  0.00%)p 1.00(100.00%)
                                           -0.0000  0.0012  0.1371  0.2307  0.9633
                ( 54.23%)   0.7364* C   2 s(  0.00%)p 1.00(100.00%)
                                            0.0000  0.0034  0.1527  0.2442  0.9576
     3. (1.98105) BD ( 1) C   1 - C   6  
                ( 49.41%)   0.7029* C   1 s( 34.57%)p 1.89( 65.43%)
                                            0.0001  0.5880  0.7746 -0.2259 -0.0569
                ( 50.59%)   0.7113* C   6 s( 35.58%)p 1.81( 64.42%)
                                            0.0000  0.5965 -0.7536  0.2724  0.0457
     4. (1.98747) BD ( 1) C   1 - C  19  
                ( 50.15%)   0.7082* C   1 s( 31.66%)p 2.16( 68.34%)
                                           -0.0000  0.5627 -0.2102  0.7837 -0.1585
                ( 49.85%)   0.7061* C  19 s( 25.57%)p 2.91( 74.43%)
                                            0.0001  0.5057  0.2389 -0.8141  0.1565
     5. (1.98973) BD ( 1) C   2 - C   3  
                ( 49.58%)   0.7042* C   2 s( 34.20%)p 1.92( 65.80%)
                                            0.0001  0.5848  0.1851 -0.7723  0.1654
                ( 50.42%)   0.7100* C   3 s( 34.33%)p 1.91( 65.67%)
                                            0.0000  0.5859 -0.1992  0.7680 -0.1653
     6. (1.98880) BD ( 1) C   2 - H  23  
                ( 51.67%)   0.7188* C   2 s( 31.34%)p 2.19( 68.66%)
                                           -0.0000  0.5599 -0.7883  0.2479  0.0605
                ( 48.33%)   0.6952* H  23 s(100.00%)
[...]
                         Standard Origin              Atomic Origin
 NLMO      Total    Paramagnetic  Diamagnetic   Paramagnetic  Diamagnetic
    3      -0.4686       -0.4353      -0.0333        -1.1116       0.6430
    4       0.1315       -1.0514       1.1828        -0.8449       0.9764
    8       0.1956       -0.3383       0.5339        -0.8402       1.0358
   13       0.6938       -0.4026       1.0965        -0.7735       1.4673
   15     -10.7701      -10.8644       0.0943       -11.5170       0.7470
   16     -10.2790      -10.6924       0.4134       -10.9863       0.7074
   17    -117.0310     -128.0679      11.0369      -126.5041       9.4731
   18     -28.7703      -52.7021      23.9319       -53.6810      24.9107
   20      -1.2629       -1.4158       0.1528        -1.2405      -0.0224
   23      -0.2014       -0.3260       0.1246        -1.1770       0.9756
   24       0.1469       -0.0746       0.2215        -0.8692       1.0161
   43      -0.3972       -1.7778       1.3806        -1.3294       0.9322
   45      -0.2455       -1.6395       1.3940        -1.2144       0.9689
   63     271.9242       -0.0059     271.9302        -0.0059     271.9301
   68     -35.2442      -70.4326      35.1884       -70.3019      35.0577
   69    -418.9077     -455.6607      36.7530      -458.5529      39.6452
 Sum     -350.4859     -735.8874     385.4015      -740.9497     390.4638

 Contributions to Isotropic shielding for atom   19 (   218.4945 ppm):
                         Standard Origin              Atomic Origin
 NLMO      Total    Paramagnetic  Diamagnetic   Paramagnetic  Diamagnetic
    1      -1.9743       -1.3526      -0.6217        -2.4505       0.4762
    2      -0.9392       -0.6172      -0.3220        -2.5897       1.6504
    3      -1.0939       -1.5163       0.4224        -1.3912       0.2973
    4       3.9828      -11.5533      15.5360        -2.9749       6.9577
    6      -0.6104       -1.4143       0.8039        -1.6453       1.0349
    8       0.8186       -0.2440       1.0625        -0.3647       1.1833
   15      -0.4056        0.1256      -0.5312        -1.2374       0.8318
   17      -0.4056       -0.2068      -0.1988        -1.1439       0.7384
   18       0.2569        0.2962      -0.0394        -1.2110       1.4679
   43       7.1871       -4.7300      11.9171        -4.2006      11.3877
   44       4.1486        5.5400      -1.3914        -7.0442      11.1928
   45       6.9251       -4.5203      11.4454        -4.5532      11.4783
   64     200.0792       -0.0038     200.0830         0.0035     200.0756
 Sum      217.9691      -20.1966     238.1657       -30.8031     248.7722

 Contributions to Isotropic shielding for atom   20 (    30.9065 ppm):
                         Standard Origin              Atomic Origin
 NLMO      Total    Paramagnetic  Diamagnetic   Paramagnetic  Diamagnetic
   13       0.1160       -0.3932       0.5092        -0.9278       1.0438
   16       1.7889        1.8008      -0.0119         0.7822       1.0067
   17      -0.5367       -0.5593       0.0226        -1.2574       0.7207
   18       0.1827       -0.1726       0.3553        -1.2592       1.4419
   20       1.2658        1.1082       0.1576         0.4065       0.8592
   22       0.0418       -0.4421       0.4838        -1.0323       1.0741
   23       1.1466        1.5706      -0.4240         0.0956       1.0510
   24      25.7268       -0.1268      25.8536         0.3343      25.3925
   28       0.2385       -0.7976       1.0361        -0.7989       1.0374
   29      -0.1667       -1.2567       1.0900        -0.8526       0.6859
 Sum       29.8036        0.7313      29.0723        -4.5097      34.3133

 Contributions to Isotropic shielding for atom   21 (    31.0921 ppm):
                         Standard Origin              Atomic Origin
 NLMO      Total    Paramagnetic  Diamagnetic   Paramagnetic  Diamagnetic
   13      -0.0488       -0.5120       0.4632        -1.2854       1.2366
   19       0.8579        0.6239       0.2340        -0.5811       1.4390
   21       0.4893        1.1947      -0.7054        -0.6934       1.1828
   22      26.4188        0.2588      26.1600         0.8277      25.5911
   24       0.0139       -0.2890       0.3030        -1.1326       1.1465
   27      -0.0765       -1.1914       1.1148        -1.2046       1.1281
   65       0.7062        0.1129       0.5933         1.0386      -0.3324
 Sum       28.3608        0.1979      28.1629        -3.0308      31.3916

 Contributions to Isotropic shielding for atom   22 (    30.4823 ppm):
                         Standard Origin              Atomic Origin
 NLMO      Total    Paramagnetic  Diamagnetic   Paramagnetic  Diamagnetic
   17      -0.2392       -0.4603       0.2211        -1.1388       0.8996
   18       0.0865       -0.3743       0.4608        -1.4014       1.4879
   23       1.1366       -0.0124       1.1490         0.0919       1.0447
   24       0.2243        0.2192       0.0050        -0.7835       1.0078
   31       0.4539        1.5493      -1.0954        -0.9332       1.3871
   34      26.0743        0.0171      26.0571         0.6576      25.4167
   37      -0.1126       -0.6907       0.5781        -1.2947       1.1821
   38       0.2328       -0.8983       1.1311        -0.5803       0.8130
   42       0.0349       -0.9761       1.0110        -0.7462       0.7811
 Sum       27.8914       -1.6264      29.5179        -6.1285      34.0199

 Contributions to Isotropic shielding for atom   23 (    25.8629 ppm):
                         Standard Origin              Atomic Origin
 NLMO      Total    Paramagnetic  Diamagnetic   Paramagnetic  Diamagnetic
    1      -1.5051       -2.6397       1.1346        -2.0879       0.5828
    2       0.6749        1.5822      -0.9073        -2.6722       3.3471
    4      -0.6832        0.7083      -1.3915        -1.7517       1.0685
    5      -1.9893       -1.3648      -0.6245        -2.6957       0.7064
    6      27.0152        0.9627      26.0525         1.5580      25.4572
    8       1.0525        0.2625       0.7900         0.1814       0.8712
    9      -0.0872       -0.0467      -0.0405        -1.1911       1.1039
   13       0.5987        0.8397      -0.2410        -0.6597       1.2584
   44      -0.1067       -1.4271       1.3204        -0.9041       0.7974
 Sum       24.9698       -1.1230      26.0927       -10.2231      35.1928

 Contributions to Isotropic shielding for atom   24 (    25.3090 ppm):
                         Standard Origin              Atomic Origin
 NLMO      Total    Paramagnetic  Diamagnetic   Paramagnetic  Diamagnetic
    2       1.1235        0.6619       0.4615         0.0601       1.0634
    5      -2.0856       -1.8359      -0.2497        -2.8273       0.7417
    6      -0.0976       -0.0656      -0.0319        -1.2250       1.1275
    7      -1.8204       -2.7192       0.8988        -2.5432       0.7228
    8       0.6555        1.2380      -0.5825        -2.1729       2.8284
    9      26.8754        1.1140      25.7614         1.5876      25.2878
   11      -0.1131        0.6206      -0.7337        -1.2185       1.1053
   13       0.4507        0.7495      -0.2988        -0.9312       1.3820
 Sum       24.9884       -0.2366      25.2251        -9.2704      34.2588

 Contributions to Isotropic shielding for atom   25 (    25.7336 ppm):
                         Standard Origin              Atomic Origin
 NLMO      Total    Paramagnetic  Diamagnetic   Paramagnetic  Diamagnetic
    2       1.2236       -0.4840       1.7077        -0.0115       1.2352
    7      -1.7806       -0.9923      -0.7883        -2.4586       0.6780
    8       0.3342       -0.1747       0.5090        -3.0579       3.3922
    9      -0.0518       -1.0763       1.0246        -1.1475       1.0958
   10      -0.8816       -2.5204       1.6388        -1.4403       0.5587
   11      26.5183        1.0976      25.4207         1.3028      25.2155
   14      -0.4511        0.2684      -0.7195        -1.9995       1.5484
   65      -0.2156       -0.4127       0.1972         0.7877      -1.0033
 Sum       24.6955       -4.2946      28.9901        -8.0249      32.7204

 Contributions to Isotropic shielding for atom   26 (    31.7806 ppm):
                         Standard Origin              Atomic Origin
 NLMO      Total    Paramagnetic  Diamagnetic   Paramagnetic  Diamagnetic
   19      -0.0491        0.1848      -0.2339        -1.8853       1.8362
   21       1.6945       -0.4788       2.1733         0.9143       0.7803
   25       1.1079        1.2341      -0.1263         0.1781       0.9298
   26      25.9992        0.1966      25.8026         0.4488      25.5504
   27       1.9583        1.9063       0.0519         0.0998       1.8584
   39      -0.3979       -1.2764       0.8785        -0.6972       0.2993
 Sum       30.3129        1.7667      28.5463        -0.9415      31.2544

 Contributions to Isotropic shielding for atom   27 (    31.6343 ppm):
                         Standard Origin              Atomic Origin
 NLMO      Total    Paramagnetic  Diamagnetic   Paramagnetic  Diamagnetic
   19       0.0223        0.3252      -0.3028        -1.1784       1.2007
   21       1.3774        0.3387       1.0387         0.4738       0.9036
   22      -0.1878        0.2713      -0.4592        -1.3247       1.1369
   25       0.8600        2.0777      -1.2177        -0.1531       1.0132
   26       2.0396        1.5924       0.4472         0.1229       1.9166
   27      26.2041       -0.1133      26.3174         0.4725      25.7316
 Sum       30.3156        4.4921      25.8236        -1.5869      31.9025

 Contributions to Isotropic shielding for atom   28 (    31.6003 ppm):
                         Standard Origin              Atomic Origin
 NLMO      Total    Paramagnetic  Diamagnetic   Paramagnetic  Diamagnetic
   20      -0.0860        0.2814      -0.3674        -1.0067       0.9207
   25       1.1939       -0.2820       1.4759         0.2452       0.9486
   28       1.2827        0.1478       1.1348        -0.1779       1.4606
   29      26.4335        0.2868      26.1468         0.6484      25.7851
   30       1.4450        2.2774      -0.8323        -0.4815       1.9266
 Sum       30.2691        2.7114      27.5577        -0.7725      31.0416

 Contributions to Isotropic shielding for atom   29 (    31.8265 ppm):
                         Standard Origin              Atomic Origin
 NLMO      Total    Paramagnetic  Diamagnetic   Paramagnetic  Diamagnetic
   28       0.5326        1.2897      -0.7571        -0.5377       1.0702
   29       1.7440        2.1351      -0.3910        -0.0929       1.8369
   30      26.3615        0.0402      26.3213         0.8284      25.5331
   32      -0.3955        0.4168      -0.8123        -1.4983       1.1028
   41      -0.1123       -1.6432       1.5309        -0.9332       0.8209
 Sum       28.1303        2.2384      25.8918        -2.2336      30.3639

 Contributions to Isotropic shielding for atom   30 (    32.6353 ppm):
                         Standard Origin              Atomic Origin
 NLMO      Total    Paramagnetic  Diamagnetic   Paramagnetic  Diamagnetic
   13      -0.0783       -0.5165       0.4382        -1.2316       1.1534
   19       0.0924       -0.3298       0.4222        -0.9318       1.0243
   23      -0.2081       -0.6417       0.4336        -1.1521       0.9440
   33       1.7234       -0.5815       2.3049         1.0947       0.6286
   36      26.0807        0.3794      25.7013         0.3623      25.7185
   37       2.1357        0.7948       1.3409         0.3304       1.8053
   39       0.0572       -1.6045       1.6618        -1.0889       1.1462
 Sum       29.8031       -2.4998      32.3029        -2.6171      32.4202

 Contributions to Isotropic shielding for atom   31 (    32.3638 ppm):
                         Standard Origin              Atomic Origin
 NLMO      Total    Paramagnetic  Diamagnetic   Paramagnetic  Diamagnetic
   18      -0.2430       -0.2701       0.0271        -1.1556       0.9126
   33       1.2996        0.4665       0.8331         0.4567       0.8429
   34      -0.1339       -0.3434       0.2095        -1.2849       1.1510
   35       0.5590        2.1294      -1.5704        -0.3444       0.9034
   36       2.2059        0.3629       1.8430         0.3541       1.8518
   37      26.1760       -0.1059      26.2819         0.3963      25.7797
   40       0.0412       -1.1760       1.2172        -1.0523       1.0935
 Sum       29.9048        1.0634      28.8414        -2.6301      32.5349

 Contributions to Isotropic shielding for atom   32 (    32.1788 ppm):
                         Standard Origin              Atomic Origin
 NLMO      Total    Paramagnetic  Diamagnetic   Paramagnetic  Diamagnetic
   32       0.3514       -0.9472       1.2986        -0.0325       0.3839
   35       1.6605       -1.4932       3.1537         0.8437       0.8168
   36      -0.1287        0.2999      -0.4286        -1.2687       1.1400
   39      26.3436        0.2196      26.1240         0.4034      25.9402
   40       1.9660        2.1625      -0.1965         0.1419       1.8241
   41       0.0406       -0.7604       0.8010        -0.9672       1.0077
 Sum       30.2334       -0.5188      30.7522        -0.8794      31.1128

 Contributions to Isotropic shielding for atom   33 (    32.2735 ppm):
                         Standard Origin              Atomic Origin
 NLMO      Total    Paramagnetic  Diamagnetic   Paramagnetic  Diamagnetic
   31      -0.2008        0.0841      -0.2849        -1.0870       0.8862
   32       0.2789       -0.8047       1.0836         0.2187       0.0602
   35       1.4114       -0.0418       1.4532         0.6212       0.7902
   37      -0.0549        0.7640      -0.8189        -1.2054       1.1505
   38       0.4873        2.0383      -1.5511        -0.2453       0.7326
   39       2.0962        1.6155       0.4806         0.3339       1.7623
   40      26.2795       -0.1143      26.3939         0.4925      25.7870
   42       0.1188       -0.4484       0.5672        -0.9838       1.1026
 Sum       30.4163        3.0928      27.3235        -1.8552      32.2715

 Contributions to Isotropic shielding for atom   34 (    31.8228 ppm):
                         Standard Origin              Atomic Origin
 NLMO      Total    Paramagnetic  Diamagnetic   Paramagnetic  Diamagnetic
   28      -0.4457        0.9053      -1.3510        -1.5672       1.1215
   32       0.9365       -0.3170       1.2535         0.1269       0.8096
   33      -0.1476        0.2859      -0.4335        -1.0592       0.9116
   39       0.0649        0.4099      -0.3450        -1.0005       1.0655
   41      26.4803        0.2265      26.2538         0.8802      25.6000
   42       1.5498        2.6959      -1.1461        -0.2697       1.8196
   67       1.0906        0.0613       1.0293         1.0702       0.0205
 Sum       29.5289        4.2677      25.2611        -1.8194      31.3482

 Contributions to Isotropic shielding for atom   35 (    31.3131 ppm):
                         Standard Origin              Atomic Origin
 NLMO      Total    Paramagnetic  Diamagnetic   Paramagnetic  Diamagnetic
   32       1.2688       -0.2518       1.5206        -0.0001       1.2690
   33      -0.2137        0.4495      -0.6632        -1.1386       0.9249
   40       0.0825        0.3318      -0.2493        -0.9385       1.0210
   41       1.2824        2.6124      -1.3300        -0.6415       1.9239
   42      26.4405        0.1878      26.2527         0.7502      25.6903
 Sum       28.8605        3.3297      25.5308        -1.9685      30.8290

 Contributions to Isotropic shielding for atom   36 (    31.4289 ppm):
                         Standard Origin              Atomic Origin
 NLMO      Total    Paramagnetic  Diamagnetic   Paramagnetic  Diamagnetic
    2      -0.7554       -0.4066      -0.3488        -1.6008       0.8454
    4       1.8478       -0.8904       2.7382         0.9932       0.8547
    8       0.5352       -0.1419       0.6771        -0.5706       1.1058
   15      -0.3162        0.3157      -0.6319        -1.2095       0.8933
   18       0.0676        0.3506      -0.2830        -1.2589       1.3264
   43      25.8131        0.2498      25.5633         0.3515      25.4616
   44       1.8189        2.5095      -0.6906        -0.0858       1.9047
   45       2.1856        0.4169       1.7688         0.3406       1.8450
 Sum       31.1966        2.4035      28.7931        -3.0403      34.2369

 Contributions to Isotropic shielding for atom   37 (    31.0282 ppm):
                         Standard Origin              Atomic Origin
 NLMO      Total    Paramagnetic  Diamagnetic   Paramagnetic  Diamagnetic
    1      -1.0067        0.3130      -1.3197        -1.8998       0.8931
    2      -0.7891        0.1633      -0.9524        -2.3859       1.5968
    4       1.0565        0.7493       0.3073         0.2868       0.7697
    6      -0.0168       -1.2220       1.2051        -0.9576       0.9408
   18       0.0808        0.1346      -0.0538        -0.9322       1.0130
   43       2.0184        2.2199      -0.2015         0.0418       1.9766
   44      26.2459       -0.1453      26.3911         0.5202      25.7256
   45       2.1494        2.3841      -0.2347         0.1882       1.9612
 Sum       29.7383        4.5969      25.1414        -5.1385      34.8768

 Contributions to Isotropic shielding for atom   38 (    30.6635 ppm):
                         Standard Origin              Atomic Origin
 NLMO      Total    Paramagnetic  Diamagnetic   Paramagnetic  Diamagnetic
    2      -0.8929       -0.4720      -0.4209        -1.8704       0.9774
    4       1.8846       -0.6604       2.5449         1.0068       0.8778
    8       0.5291       -0.1874       0.7164        -0.5330       1.0620
   15      -0.3236        0.1536      -0.4773        -1.1927       0.8690
   18       0.1750        0.1553       0.0197        -1.1073       1.2823
   43       2.2073        0.4567       1.7506         0.4127       1.7947
   44       1.7703        2.6380      -0.8677        -0.0816       1.8519
   45      25.6254        0.2506      25.3748         0.3604      25.2649
 Sum       30.9751        2.3345      28.6406        -3.0051      33.9801
 
 1\1\GINC-GNOSIE-MM\SP\RHF\STO-3G\C16H19N1O2\MBENIDD\18-May-2026\0\\# n
 mr=giao hf/sto-3g pop=nbo\\Title Card Required\\0,1\C,0,0.,0.,0.\C,0,1
 .4068,0.,0.\C,0,2.1253,1.1954,0.\C,0,1.448,2.41,-0.0084\C,0,0.0544,2.4
 277,-0.0264\C,0,-0.6751,1.2363,0.0034\C,0,-2.1442,1.3528,0.0953\O,0,-0
 .5268,3.6642,-0.0139\C,0,-1.7537,3.7057,-0.7509\C,0,-2.7767,2.6697,-0.
 2941\C,0,-2.2792,5.142,-0.637\C,0,-3.8006,5.2023,-0.6413\N,0,-4.4436,4
 .4177,0.4149\C,0,-3.718,3.1858,0.8015\C,0,-3.0551,3.4751,2.1574\C,0,-3
 .4963,4.8749,2.5478\C,0,-4.6858,5.158,1.6562\O,0,-2.8326,0.4066,0.4716
 \C,0,-0.7134,-1.3243,0.0175\H,0,-3.4018,2.4375,-1.1703\H,0,-1.509,3.51
 79,-1.807\H,0,-4.4847,2.4182,0.9774\H,0,1.9554,-0.9407,0.0087\H,0,3.21
 23,1.1776,0.0094\H,0,2.0044,3.3437,-0.0046\H,0,-1.8815,5.6338,0.258\H,
 0,-1.8898,5.7286,-1.4789\H,0,-4.1574,4.8141,-1.6043\H,0,-4.1351,6.2465
 ,-0.6166\H,0,-1.9642,3.4101,2.1473\H,0,-3.4144,2.7542,2.9019\H,0,-2.69
 06,5.5917,2.3572\H,0,-3.7515,4.9408,3.6101\H,0,-4.854,6.2303,1.5106\H,
 0,-5.5942,4.7574,2.1233\H,0,-1.4681,-1.368,-0.7742\H,0,-0.02,-2.1529,-
 0.1651\H,0,-1.1793,-1.4944,0.9929\\Version=EM64L-G16RevB.01\State=1-A\
 HF=-811.0472147\RMSD=4.735e-09\Dipole=0.4948572,0.3901115,-0.2714652\Q
 uadrupole=-3.0442268,1.242205,1.8020218,-3.6080946,-0.9409292,0.791879
 9\PG=C01 [X(C16H19N1O2)]\\@


 THE ONLY TROUBLE WITH A SURE THING IS THE UNCERTAINTY.
     -- FROM A TEABAG (BELONGING TO W.H.?)
 Job cpu time:       0 days  0 hours  3 minutes 40.0 seconds.
 Elapsed time:       0 days  0 hours  1 minutes 57.6 seconds.
 File lengths (MBytes):  RWF=     14 Int=      0 D2E=      0 Chk=      2 Scr=      1
 Normal termination of Gaussian 16 at Mon May 18 12:01:39 2026.
