 Entering Gaussian System, Link 0=g16
 Input=3_elaeocarpine_c_6.gjf
 Output=3_elaeocarpine_c_6.log
 Initial command:
 /opt/gaussian/g16/l1.exe "/home/mbenidd/Bureau/Elaeocarpines/HF_NMR/3/3_elaeocarpine_c6/Gau-13110.inp" -scrdir="/home/mbenidd/Bureau/Elaeocarpines/HF_NMR/3/3_elaeocarpine_c6/"
 Entering Link 1 = /opt/gaussian/g16/l1.exe PID=     13112.
  
 Copyright (c) 1988-2017, Gaussian, Inc.  All Rights Reserved.
  
 This is part of the Gaussian(R) 16 program.  It is based on
 the Gaussian(R) 09 system (copyright 2009, Gaussian, Inc.),
 the Gaussian(R) 03 system (copyright 2003, Gaussian, Inc.),
 the Gaussian(R) 98 system (copyright 1998, Gaussian, Inc.),
 the Gaussian(R) 94 system (copyright 1995, Gaussian, Inc.),
 the Gaussian 92(TM) system (copyright 1992, Gaussian, Inc.),
 the Gaussian 90(TM) system (copyright 1990, Gaussian, Inc.),
 the Gaussian 88(TM) system (copyright 1988, Gaussian, Inc.),
 the Gaussian 86(TM) system (copyright 1986, Carnegie Mellon
 University), and the Gaussian 82(TM) system (copyright 1983,
 Carnegie Mellon University). Gaussian is a federally registered
 trademark of Gaussian, Inc.
  
 This software contains proprietary and confidential information,
 including trade secrets, belonging to Gaussian, Inc.
  
 This software is provided under written license and may be
 used, copied, transmitted, or stored only in accord with that
 written license.
  
 The following legend is applicable only to US Government
 contracts under FAR:
  
                    RESTRICTED RIGHTS LEGEND
  
 Use, reproduction and disclosure by the US Government is
 subject to restrictions as set forth in subparagraphs (a)
 and (c) of the Commercial Computer Software - Restricted
 Rights clause in FAR 52.227-19.
  
 Gaussian, Inc.
 340 Quinnipiac St., Bldg. 40, Wallingford CT 06492
  
  
 ---------------------------------------------------------------
 Warning -- This program may not be used in any manner that
 competes with the business of Gaussian, Inc. or will provide
 assistance to any competitor of Gaussian, Inc.  The licensee
 of this program is prohibited from giving any competitor of
 Gaussian, Inc. access to this program.  By using this program,
 the user acknowledges that Gaussian, Inc. is engaged in the
 business of creating and licensing software in the field of
 computational chemistry and represents and warrants to the
 licensee that it is not a competitor of Gaussian, Inc. and that
 it will not use this program in any manner prohibited above.
 ---------------------------------------------------------------
  

 Cite this work as:
 Gaussian 16, Revision B.01,
 M. J. Frisch, G. W. Trucks, H. B. Schlegel, G. E. Scuseria, 
 M. A. Robb, J. R. Cheeseman, G. Scalmani, V. Barone, 
 G. A. Petersson, H. Nakatsuji, X. Li, M. Caricato, A. V. Marenich, 
 J. Bloino, B. G. Janesko, R. Gomperts, B. Mennucci, H. P. Hratchian, 
 J. V. Ortiz, A. F. Izmaylov, J. L. Sonnenberg, D. Williams-Young, 
 F. Ding, F. Lipparini, F. Egidi, J. Goings, B. Peng, A. Petrone, 
 T. Henderson, D. Ranasinghe, V. G. Zakrzewski, J. Gao, N. Rega, 
 G. Zheng, W. Liang, M. Hada, M. Ehara, K. Toyota, R. Fukuda, 
 J. Hasegawa, M. Ishida, T. Nakajima, Y. Honda, O. Kitao, H. Nakai, 
 T. Vreven, K. Throssell, J. A. Montgomery, Jr., J. E. Peralta, 
 F. Ogliaro, M. J. Bearpark, J. J. Heyd, E. N. Brothers, K. N. Kudin, 
 V. N. Staroverov, T. A. Keith, R. Kobayashi, J. Normand, 
 K. Raghavachari, A. P. Rendell, J. C. Burant, S. S. Iyengar, 
 J. Tomasi, M. Cossi, J. M. Millam, M. Klene, C. Adamo, R. Cammi, 
 J. W. Ochterski, R. L. Martin, K. Morokuma, O. Farkas, 
 J. B. Foresman, and D. J. Fox, Gaussian, Inc., Wallingford CT, 2016.
 
 ******************************************
 Gaussian 16:  EM64L-G16RevB.01 20-Dec-2017
                18-May-2026 
 ******************************************
 %nprocshared=4
 Will use up to    4 processors via shared memory.
 ----------------------------
 # nmr=giao hf/sto-3g pop=nbo
 ----------------------------
 1/38=1,172=1/1;
 2/12=2,17=6,18=5,40=1/2;
 3/6=3,11=9,25=1,30=1/1,2,3,8;
 4//1;
 5/5=2,38=5/2;
 8/6=1,10=90,11=11/1;
 10/13=100,45=16/2;
 6/7=2,8=2,9=2,10=2,28=1,40=1,64=1/1,7;
 99/9=1/99;
 -------------------
 Title Card Required
 -------------------
 Symbolic Z-matrix:
 Charge =  0 Multiplicity = 1
 C                     0.        0.        0. 
 C                     1.4072    0.        0. 
 C                     2.127     1.1946    0. 
 C                     1.4513    2.4096   -0.01 
 C                     0.0575    2.4286   -0.0288 
 C                    -0.6758    1.2363    0.0016 
 C                    -2.149     1.3509    0.093 
 O                    -0.5178    3.6707   -0.0276 
 C                    -1.7648    3.691    -0.7306 
 C                    -2.7717    2.7062   -0.1535 
 C                    -2.2777    5.1369   -0.7101 
 C                    -3.7605    5.2237   -0.3663 
 N                    -4.1182    4.5716    0.894 
 C                    -3.5101    3.2308    1.0891 
 C                    -2.6769    3.3192    2.3759 
 C                    -2.5494    4.7974    2.6721 
 C                    -3.8151    5.3787    2.0819 
 O                    -2.8503    0.3826    0.3784 
 C                    -0.7107   -1.3259    0.0185 
 H                    -3.5263    2.5347   -0.9366 
 H                    -1.5567    3.4239   -1.7776 
 H                    -4.3343    2.5331    1.2914 
 H                     1.9556   -0.9408    0.0089 
 H                     3.214     1.1755    0.0092 
 H                     2.0086    3.3427   -0.0088 
 H                    -1.692     5.7561   -0.0207 
 H                    -2.1214    5.5811   -1.7014 
 H                    -4.3413    4.7561   -1.1721 
 H                    -4.0825    6.2724   -0.3625 
 H                    -1.698     2.838     2.3267 
 H                    -3.23      2.8408    3.1947 
 H                    -1.6609    5.2088    2.1828 
 H                    -2.4625    4.995     3.7448 
 H                    -3.7224    6.4517    1.8825 
 H                    -4.6398    5.2577    2.795 
 H                    -1.4414   -1.3841   -0.7943 
 H                    -0.0109   -2.1561   -0.1293 
 H                    -1.2036   -1.4823    0.983 
 
                          Input orientation:                          
 ---------------------------------------------------------------------
 Center     Atomic      Atomic             Coordinates (Angstroms)
 Number     Number       Type             X           Y           Z
 ---------------------------------------------------------------------
      1          6           0        0.000000    0.000000    0.000000
      2          6           0        1.407200    0.000000    0.000000
      3          6           0        2.127000    1.194600    0.000000
      4          6           0        1.451300    2.409600   -0.010000
      5          6           0        0.057500    2.428600   -0.028800
      6          6           0       -0.675800    1.236300    0.001600
      7          6           0       -2.149000    1.350900    0.093000
      8          8           0       -0.517800    3.670700   -0.027600
      9          6           0       -1.764800    3.691000   -0.730600
     10          6           0       -2.771700    2.706200   -0.153500
     11          6           0       -2.277700    5.136900   -0.710100
     12          6           0       -3.760500    5.223700   -0.366300
     13          7           0       -4.118200    4.571600    0.894000
     14          6           0       -3.510100    3.230800    1.089100
     15          6           0       -2.676900    3.319200    2.375900
     16          6           0       -2.549400    4.797400    2.672100
     17          6           0       -3.815100    5.378700    2.081900
     18          8           0       -2.850300    0.382600    0.378400
     19          6           0       -0.710700   -1.325900    0.018500
     20          1           0       -3.526300    2.534700   -0.936600
     21          1           0       -1.556700    3.423900   -1.777600
     22          1           0       -4.334300    2.533100    1.291400
     23          1           0        1.955600   -0.940800    0.008900
     24          1           0        3.214000    1.175500    0.009200
     25          1           0        2.008600    3.342700   -0.008800
     26          1           0       -1.692000    5.756100   -0.020700
     27          1           0       -2.121400    5.581100   -1.701400
     28          1           0       -4.341300    4.756100   -1.172100
     29          1           0       -4.082500    6.272400   -0.362500
     30          1           0       -1.698000    2.838000    2.326700
     31          1           0       -3.230000    2.840800    3.194700
     32          1           0       -1.660900    5.208800    2.182800
     33          1           0       -2.462500    4.995000    3.744800
     34          1           0       -3.722400    6.451700    1.882500
     35          1           0       -4.639800    5.257700    2.795000
     36          1           0       -1.441400   -1.384100   -0.794300
     37          1           0       -0.010900   -2.156100   -0.129300
     38          1           0       -1.203600   -1.482300    0.983000
 ---------------------------------------------------------------------
                    Distance matrix (angstroms):
                    1          2          3          4          5
     1  C    0.000000
     2  C    1.407200   0.000000
     3  C    2.439508   1.394698   0.000000
     4  C    2.812924   2.410024   1.390286   0.000000
     5  C    2.429451   2.778600   2.409651   1.394056   0.000000
     6  C    1.408952   2.422257   2.803111   2.429264   1.400083
     7  C    2.540036   3.805278   4.279866   3.754146   2.458641
     8  O    3.707144   4.144928   3.623093   2.338384   1.368862
     9  C    4.155933   4.921264   4.681014   3.536177   2.325286
    10  C    3.876777   4.980992   5.128914   4.235834   2.845520
    11  C    5.663912   6.361641   5.953768   4.672659   3.640360
    12  C    6.446904   7.357061   7.143562   5.933714   4.743797
    13  N    6.217583   7.226950   7.155829   6.042416   4.783354
    14  C    4.893364   5.983648   6.091728   5.147609   3.823741
    15  C    4.881371   5.774241   5.765092   4.854063   3.748692
    16  C    6.054305   6.768297   6.479892   5.375951   4.438694
    17  C    6.915180   7.780562   7.559732   6.397388   5.306145
    18  O    2.900652   4.291372   5.057277   4.771095   3.578719
    19  C    1.504476   2.498770   3.795498   4.316134   3.832576
    20  H    4.442602   5.625064   5.884971   5.064656   3.698511
    21  H    4.160080   4.864942   4.658249   3.633356   2.579644
    22  H    5.183673   6.406960   6.723667   5.931447   4.587129
    23  H    2.170151   1.089002   2.142286   3.388194   3.867436
    24  H    3.422233   2.155554   1.087207   2.151856   3.396350
    25  H    3.899769   3.396381   2.151379   1.086858   2.154709
    26  H    5.999665   6.537443   5.949157   4.591243   3.759398
    27  H    6.208363   6.818684   6.339168   5.067882   4.181322
    28  H    6.545318   7.552454   7.476430   6.356945   5.106254
    29  H    7.492744   8.343334   8.029530   6.757842   5.659130
    30  H    4.043635   4.807291   4.769164   3.944843   2.966103
    31  H    5.358092   6.307129   6.450855   5.689517   4.622609
    32  H    5.886833   6.427243   5.935200   4.725429   3.946338
    33  H    6.710995   7.344939   7.037761   6.008381   5.213144
    34  H    7.682740   8.454646   8.086803   6.832811   5.841750
    35  H    7.548720   8.486557   8.373195   7.285684   6.167842
    36  H    2.150414   3.265144   4.473710   4.834770   4.167658
    37  H    2.160001   2.583891   3.976748   4.795610   4.586311
    38  H    2.147593   3.159079   4.384630   4.814710   4.231932
                    6          7          8          9         10
     6  C    0.000000
     7  C    1.480475   0.000000
     8  O    2.439697   2.838456   0.000000
     9  C    2.783449   2.510377   1.431653   0.000000
    10  C    2.564656   1.511739   2.454827   1.522079   0.000000
    11  C    4.276363   3.872380   2.390146   1.534312   2.542074
    12  C    5.054709   4.219771   3.611320   2.542578   2.713082
    13  N    4.875523   3.859049   3.824114   2.992202   2.527852
    14  C    3.632347   2.525635   3.224033   2.563038   1.537691
    15  C    3.739007   3.060150   3.249935   3.258911   2.604346
    16  C    4.829429   4.323244   3.561633   3.663070   3.522293
    17  C    5.598422   4.791115   4.270766   3.868103   3.637025
    18  O    2.366270   1.229178   4.051789   3.654272   2.384997
    19  C    2.562493   3.039657   5.000535   5.180884   4.531571
    20  H    3.269772   2.087681   3.341833   2.117156   1.100945
    21  H    2.954172   2.854346   2.050054   1.100389   2.151516
    22  H    4.090220   2.758495   4.195184   3.468652   2.135279
    23  H    3.415272   4.701777   5.233065   5.986803   5.972801
    24  H    3.890283   5.366522   4.489288   5.627032   6.180463
    25  H    3.412189   4.611211   2.547672   3.857571   4.824659
    26  H    4.632683   4.430301   2.393259   2.184925   3.238098
    27  H    4.885413   4.595131   3.003792   2.154552   3.329254
    28  H    5.215597   4.242882   4.136076   2.822714   2.775478
    29  H    6.091016   5.307265   4.425843   3.488676   3.805215
    30  H    3.002736   2.721081   2.762063   3.174768   2.705845
    31  H    4.392522   3.606786   4.292782   4.275235   3.382100
    32  H    4.637759   4.414623   2.925457   3.286702   3.599331
    33  H    5.597470   5.168500   4.445968   4.713428   4.531109
    34  H    6.326133   5.629925   4.653161   4.275740   4.367825
    35  H    6.299844   5.363579   5.241805   4.811448   4.323610
    36  H    2.843606   2.961119   5.195370   5.085792   4.348664
    37  H    3.459423   4.113385   5.849691   6.134028   5.591472
    38  H    2.938112   3.116553   5.295757   5.478540   4.614553
                   11         12         13         14         15
    11  C    0.000000
    12  C    1.524608   0.000000
    13  N    2.506021   1.463400   0.000000
    14  C    2.896403   2.480431   1.485124   0.000000
    15  C    3.603719   3.510124   2.416998   1.535543   0.000000
    16  C    3.410038   3.298541   2.381965   2.425504   1.512966
    17  C    3.196456   2.453709   1.467783   2.385823   2.371387
    18  O    4.910812   4.981896   4.406942   3.008766   3.555797
    19  C    6.689853   7.235096   6.867173   5.454020   5.567785
    20  H    2.895125   2.758770   2.801857   2.142027   3.508501
    21  H    2.143307   3.176127   3.875041   3.474339   4.303182
    22  H    3.874968   3.211938   2.088087   1.098643   2.130978
    23  H    7.441520   8.415203   8.249909   6.960097   6.723864
    24  H    6.809468   8.072953   8.128808   7.113646   6.700703
    25  H    4.699292   6.078526   6.313709   5.627962   5.257495
    26  H    1.096232   2.163696   2.850643   3.303677   3.556993
    27  H    1.097460   2.144033   3.426719   3.903753   4.695652
    28  H    2.148697   1.097858   2.086285   2.851396   4.174112
    29  H    2.160437   1.097028   2.114897   3.418496   4.265669
    30  H    3.852681   4.147013   3.303841   2.229272   1.091888
    31  H    4.628867   4.317449   3.012937   2.159654   1.097825
    32  H    2.958797   3.302492   2.846990   2.920309   2.154097
    33  H    4.460989   4.317204   3.323804   3.355981   2.174433
    34  H    3.246141   2.562526   2.160686   3.323966   3.339022
    35  H    4.228455   3.281485   2.087247   2.880042   2.790413
    36  H    6.574947   7.016012   6.744329   5.396667   5.804968
    37  H    7.659214   8.281130   7.948522   6.538164   6.585020
    38  H    6.916219   7.302656   6.719562   5.248286   5.212023
                   16         17         18         19         20
    16  C    0.000000
    17  C    1.512694   0.000000
    18  O    4.984181   5.365982   0.000000
    19  C    6.922226   7.671152   2.761592   0.000000
    20  H    4.369995   4.157293   2.611079   4.872787   0.000000
    21  H    4.761490   4.880303   3.946041   5.148038   2.318897
    22  H    3.196757   2.998649   2.767756   5.444505   2.369990
    23  H    7.766247   8.805361   4.998459   2.693984   6.559291
    24  H    7.309307   8.448149   6.127049   4.654069   6.940721
    25  H    5.484409   6.513970   5.702721   5.402885   5.669991
    26  H    2.984194   3.011795   5.511392   7.149770   3.818501
    27  H    4.463728   4.150054   5.646350   7.256361   3.440816
    28  H    4.241519   3.354554   4.873873   7.182584   2.377878
    29  H    3.706052   2.616351   6.062755   8.321560   3.822218
    30  H    2.164124   3.316202   3.339559   4.862161   3.752839
    31  H    2.136495   2.832243   3.757455   5.813476   4.153207
    32  H    1.094576   2.163244   5.287981   6.949056   4.512337
    33  H    1.094204   2.177611   5.723397   7.543732   5.394465
    34  H    2.176260   1.095300   6.313228   8.546104   4.829976
    35  H    2.144004   1.096942   5.727902   8.154175   4.751784
    36  H    7.173182   7.722852   2.545870   1.094511   4.441177
    37  H    7.914732   8.725512   3.842519   1.095809   5.917210
    38  H    6.640698   7.422994   2.560276   1.094382   5.021562
                   21         22         23         24         25
    21  H    0.000000
    22  H    4.234070   0.000000
    23  H    5.880343   7.299016   0.000000
    24  H    5.568441   7.775857   2.462173   0.000000
    25  H    3.980780   6.525209   4.283864   2.479933   0.000000
    26  H    2.923040   4.369335   7.625899   6.712051   4.418040
    27  H    2.231189   4.810830   7.879228   7.127549   4.993218
    28  H    3.145693   3.318224   8.573236   8.443857   6.608494
    29  H    4.061542   4.096481   9.414183   8.908168   6.768290
    30  H    4.148316   2.848664   5.744590   5.680005   4.410007
    31  H    5.278608   2.221871   7.165212   7.378738   6.160945
    32  H    4.345284   3.886005   7.458049   6.690045   4.663761
    33  H    5.812549   3.947627   8.289166   7.795251   6.067153
    34  H    5.220552   4.009894   9.507845   8.914100   6.788760
    35  H    5.811798   3.126914   9.470114   9.279397   7.465236
    36  H    4.908873   5.297497   3.518701   5.373073   5.904418
    37  H    6.020199   6.534430   2.315853   4.638828   5.859155
    38  H    5.640602   5.100964   3.350021   5.246654   5.880691
                   26         27         28         29         30
    26  H    0.000000
    27  H    1.743491   0.000000
    28  H    3.056880   2.426673   0.000000
    29  H    2.469389   2.473148   1.738274   0.000000
    30  H    3.745081   4.891774   4.786203   4.971191   0.000000
    31  H    4.604695   5.719269   4.896152   5.015606   1.760811
    32  H    2.270664   3.929081   4.317967   3.670687   2.375453
    33  H    3.918154   5.488256   5.269048   4.596310   2.692233
    34  H    2.868546   4.020632   3.548053   2.280755   4.165854
    35  H    4.106835   5.163772   4.009811   3.363035   3.837765
    36  H    7.186356   7.056858   6.801045   8.110725   5.256673
    37  H    8.089549   8.172513   8.223035   9.363329   5.815434
    38  H    7.323960   7.611832   7.308027   8.380561   4.551368
                   31         32         33         34         35
    31  H    0.000000
    32  H    3.015533   0.000000
    33  H    2.352072   1.768648   0.000000
    34  H    3.873361   2.425853   2.679083   0.000000
    35  H    2.826429   3.041550   2.389930   1.760658   0.000000
    36  H    6.079555   7.237239   7.895504   8.588829   8.199167
    37  H    6.810330   7.893672   8.494541   9.587325   9.216435
    38  H    5.261854   6.813183   7.153166   8.372682   7.779358
                   36         37         38
    36  H    0.000000
    37  H    1.756286   0.000000
    38  H    1.795825   1.764582   0.000000
 Stoichiometry    C16H19NO2
 Framework group  C1[X(C16H19NO2)]
 Deg. of freedom   108
 Full point group                 C1      NOp   1
 Largest Abelian subgroup         C1      NOp   1
 Largest concise Abelian subgroup C1      NOp   1
                         Standard orientation:                         
 ---------------------------------------------------------------------
 Center     Atomic      Atomic             Coordinates (Angstroms)
 Number     Number       Type             X           Y           Z
 ---------------------------------------------------------------------
      1          6           0       -3.074860    0.552494    0.014419
      2          6           0       -3.984597   -0.458980    0.374295
      3          6           0       -3.563117   -1.776709    0.550717
      4          6           0       -2.226079   -2.106899    0.360457
      5          6           0       -1.314207   -1.121278   -0.014289
      6          6           0       -1.719904    0.210260   -0.164789
      7          6           0       -0.666343    1.209368   -0.453920
      8          8           0       -0.019988   -1.539710   -0.168219
      9          6           0        0.677562   -0.787536   -1.166863
     10          6           0        0.698973    0.703167   -0.860156
     11          6           0        2.086129   -1.383777   -1.287484
     12          6           0        3.169667   -0.312271   -1.334890
     13          7           0        3.138569    0.615771   -0.203824
     14          6           0        1.784412    1.113208    0.148895
     15          6           0        1.537791    0.694056    1.605391
     16          6           0        2.604834   -0.332935    1.914865
     17          6           0        3.750783    0.077773    1.016888
     18          8           0       -0.881572    2.415186   -0.351159
     19          6           0       -3.596440    1.955085   -0.140950
     20          1           0        0.921715    1.215036   -1.809079
     21          1           0        0.160528   -0.952600   -2.124092
     22          1           0        1.834897    2.210637    0.138156
     23          1           0       -5.035976   -0.221199    0.529178
     24          1           0       -4.278409   -2.543523    0.837721
     25          1           0       -1.893460   -3.132406    0.498158
     26          1           0        2.288447   -2.091590   -0.475207
     27          1           0        2.140423   -1.977814   -2.208674
     28          1           0        3.056243    0.268837   -2.259412
     29          1           0        4.157017   -0.782716   -1.420288
     30          1           0        0.539065    0.303692    1.811256
     31          1           0        1.684283    1.564186    2.258563
     32          1           0        2.249746   -1.338067    1.666433
     33          1           0        2.884082   -0.328578    2.972827
     34          1           0        4.452321   -0.744767    0.840951
     35          1           0        4.319583    0.884048    1.496127
     36          1           0       -3.310266    2.368352   -1.113199
     37          1           0       -4.691164    1.980843   -0.099543
     38          1           0       -3.224191    2.593271    0.666405
 ---------------------------------------------------------------------
 Rotational constants (GHZ):           0.7889361           0.2831551           0.2528225
 Standard basis: STO-3G (5D, 7F)
 There are   114 symmetry adapted cartesian basis functions of A   symmetry.
 There are   114 symmetry adapted basis functions of A   symmetry.
   114 basis functions,   342 primitive gaussians,   114 cartesian basis functions
    69 alpha electrons       69 beta electrons
       nuclear repulsion energy      1517.2618868296 Hartrees.
 NAtoms=   38 NActive=   38 NUniq=   38 SFac= 1.00D+00 NAtFMM=   60 NAOKFM=F Big=F
 Integral buffers will be    131072 words long.
 Raffenetti 1 integral format.
 Two-electron integral symmetry is turned on.
 One-electron integrals computed using PRISM.
 NBasis=   114 RedAO= T EigKep=  1.73D-01  NBF=   114
 NBsUse=   114 1.00D-06 EigRej= -1.00D+00 NBFU=   114
 ExpMin= 1.69D-01 ExpMax= 1.31D+02 ExpMxC= 1.31D+02 IAcc=3 IRadAn=         5 AccDes= 0.00D+00
 Harris functional with IExCor=  205 and IRadAn=       5 diagonalized for initial guess.
 HarFok:  IExCor=  205 AccDes= 0.00D+00 IRadAn=         5 IDoV= 1 UseB2=F ITyADJ=14
 ICtDFT=  3500011 ScaDFX=  1.000000  1.000000  1.000000  1.000000
 FoFCou: FMM=F IPFlag=           0 FMFlag=      100000 FMFlg1=           0
         NFxFlg=           0 DoJE=T BraDBF=F KetDBF=T FulRan=T
         wScrn=  0.000000 ICntrl=       500 IOpCl=  0 I1Cent=   200000004 NGrid=           0
         NMat0=    1 NMatS0=      1 NMatT0=    0 NMatD0=    1 NMtDS0=    0 NMtDT0=    0
 Petite list used in FoFCou.
 Requested convergence on RMS density matrix=1.00D-08 within 128 cycles.
 Requested convergence on MAX density matrix=1.00D-06.
 Requested convergence on             energy=1.00D-06.
 No special actions if energy rises.
 Integral accuracy reduced to 1.0D-05 until final iterations.
 Initial convergence to 1.0D-05 achieved.  Increase integral accuracy.
 SCF Done:  E(RHF) =  -811.047336370     A.U. after   17 cycles
            NFock= 17  Conv=0.77D-08     -V/T= 2.0093
 Range of M.O.s used for correlation:     1   114
 NBasis=   114 NAE=    69 NBE=    69 NFC=     0 NFV=     0
 NROrb=    114 NOA=    69 NOB=    69 NVA=    45 NVB=    45
          Differentiating once with respect to magnetic field using GIAOs.
          Electric field/nuclear overlap derivatives assumed to be zero.
 FoFCou: FMM=F IPFlag=           0 FMFlag=      100000 FMFlg1=           0
         NFxFlg=           0 DoJE=F BraDBF=F KetDBF=T FulRan=T
         wScrn=  0.000000 ICntrl=      6100 IOpCl=  0 I1Cent=           7 NGrid=          38
         NMat0=    1 NMatS0=      1 NMatT0=    0 NMatD0=    1 NMtDS0=    0 NMtDT0=    0
 Symmetry not used in FoFCou.
 FoFJK:  IHMeth= 1 ICntrl=    6127 DoSepK=F KAlg= 0 I1Cent=           0 FoldK=F
 IRaf=         1 NMat=       1 IRICut=       1 DoRegI=T DoRafI=F ISym2E= 0 IDoP0=0 IntGTp=1.
          There are     3 degrees of freedom in the 1st order CPHF.  IDoFFX=0 NUNeed=     3.
      3 vectors produced by pass  0 Test12= 1.04D-13 3.33D-08 XBig12= 2.19D+01 1.45D+00.
 AX will form     3 AO Fock derivatives at one time.
      3 vectors produced by pass  1 Test12= 1.04D-13 3.33D-08 XBig12= 1.36D-01 2.07D-01.
      3 vectors produced by pass  2 Test12= 1.04D-13 3.33D-08 XBig12= 4.56D-03 2.48D-02.
      3 vectors produced by pass  3 Test12= 1.04D-13 3.33D-08 XBig12= 1.32D-04 2.20D-03.
      3 vectors produced by pass  4 Test12= 1.04D-13 3.33D-08 XBig12= 1.94D-06 1.85D-04.
      3 vectors produced by pass  5 Test12= 1.04D-13 3.33D-08 XBig12= 2.30D-08 1.97D-05.
      3 vectors produced by pass  6 Test12= 1.04D-13 3.33D-08 XBig12= 4.18D-10 2.81D-06.
      3 vectors produced by pass  7 Test12= 1.04D-13 3.33D-08 XBig12= 7.03D-12 3.19D-07.
      1 vectors produced by pass  8 Test12= 1.04D-13 3.33D-08 XBig12= 1.19D-13 3.95D-08.
 InvSVY:  IOpt=1 It=  1 EMax= 4.44D-16
 Solved reduced A of dimension    25 with     3 vectors.
 Calculating GIAO nuclear magnetic shielding tensors.
 SCF GIAO Magnetic shielding tensor (ppm):
      1  C    Isotropic =   114.0152   Anisotropy =   169.6202
   XX=    74.4337   YX=    23.3445   ZX=    22.7043
   XY=    28.6634   YY=    48.8939   ZY=    27.7980
   XZ=    23.0122   YZ=    23.1002   ZZ=   218.7179
   Eigenvalues:    32.1551    82.7951   227.0953
      2  C    Isotropic =   123.4485   Anisotropy =   144.2489
   XX=    44.2636   YX=    23.4100   ZX=    29.0939
   XY=    19.7065   YY=   114.5614   ZY=    16.1412
   XZ=    31.4664   YZ=    10.6702   ZZ=   211.5205
   Eigenvalues:    34.3972   116.3339   219.6144
      3  C    Isotropic =   117.3749   Anisotropy =   168.5203
   XX=    72.5062   YX=   -32.7716   ZX=    36.0018
   XY=   -34.4773   YY=    64.4626   ZY=    38.8148
   XZ=    37.6044   YZ=    38.2654   ZZ=   215.1560
   Eigenvalues:    20.0788   102.3241   229.7218
      4  C    Isotropic =   130.9898   Anisotropy =   146.7646
   XX=   115.5151   YX=    23.6931   ZX=    18.2494
   XY=    21.2074   YY=    58.0380   ZY=    30.3333
   XZ=    21.1598   YZ=    24.9918   ZZ=   219.4164
   Eigenvalues:    47.8937   116.2429   228.8329
      5  C    Isotropic =   105.3980   Anisotropy =   133.3077
   XX=    55.0139   YX=    18.3039   ZX=    25.9167
   XY=     6.6796   YY=    74.3934   ZY=    20.6068
   XZ=    19.9689   YZ=    17.2187   ZZ=   186.7867
   Eigenvalues:    47.6038    74.3205   194.2698
      6  C    Isotropic =   129.9461   Anisotropy =   152.6999
   XX=    86.1944   YX=   -15.2485   ZX=    28.2687
   XY=   -16.0512   YY=    79.2731   ZY=    23.9256
   XZ=    21.1885   YZ=    25.1457   ZZ=   224.3709
   Eigenvalues:    59.4248    98.6675   231.7461
      7  C    Isotropic =    91.1767   Anisotropy =   141.9191
   XX=   -22.4512   YX=   -34.0310   ZX=    59.7343
   XY=   -33.0906   YY=   128.7060   ZY=     8.2870
   XZ=    64.4495   YZ=    11.7580   ZZ=   167.2752
   Eigenvalues:   -47.9114   135.6519   185.7894
      8  O    Isotropic =   345.8973   Anisotropy =    94.7234
   XX=   340.2643   YX=   -36.0376   ZX=    44.2448
   XY=   -48.6765   YY=   304.2008   ZY=    40.6346
   XZ=    21.7245   YZ=    -0.6849   ZZ=   393.2268
   Eigenvalues:   266.4118   362.2339   409.0462
      9  C    Isotropic =   187.9345   Anisotropy =    44.5232
   XX=   190.6434   YX=     7.8785   ZX=   -18.5655
   XY=    12.8170   YY=   181.8608   ZY=   -13.6693
   XZ=   -17.5131   YZ=   -15.0595   ZZ=   191.2994
   Eigenvalues:   170.6785   175.5085   217.6166
     10  C    Isotropic =   211.9315   Anisotropy =    10.1250
   XX=   218.0862   YX=    -5.6623   ZX=     1.2990
   XY=    -0.6369   YY=   200.9259   ZY=    -0.6468
   XZ=    -1.5647   YZ=     2.0968   ZZ=   216.7823
   Eigenvalues:   200.3371   216.7759   218.6814
     11  C    Isotropic =   219.3775   Anisotropy =    17.3404
   XX=   229.2967   YX=    -1.3944   ZX=    -3.9344
   XY=    -2.1328   YY=   215.8806   ZY=    -2.2050
   XZ=    -6.5435   YZ=    -0.9168   ZZ=   212.9553
   Eigenvalues:   210.6486   216.5462   230.9378
     12  C    Isotropic =   203.5065   Anisotropy =    35.9639
   XX=   194.6088   YX=    -1.9685   ZX=    -2.0559
   XY=    -1.5760   YY=   200.6948   ZY=    20.6747
   XZ=    -1.9370   YZ=    15.1203   ZZ=   215.2159
   Eigenvalues:   188.6196   194.4175   227.4824
     13  N    Isotropic =   297.3231   Anisotropy =    64.5923
   XX=   320.2295   YX=   -41.2495   ZX=     1.4418
   XY=   -35.3074   YY=   258.3027   ZY=   -11.1966
   XZ=     6.9098   YZ=    -4.2318   ZZ=   313.4372
   Eigenvalues:   239.6684   311.9163   340.3847
     14  C    Isotropic =   194.2019   Anisotropy =    38.9581
   XX=   213.6556   YX=   -15.0696   ZX=    -7.0102
   XY=   -15.6850   YY=   177.7541   ZY=    -5.3423
   XZ=    -7.1885   YZ=    -5.3023   ZZ=   191.1961
   Eigenvalues:   169.4565   192.9752   220.1740
     15  C    Isotropic =   213.5633   Anisotropy =    26.6919
   XX=   213.7866   YX=   -10.6539   ZX=    -1.5271
   XY=   -14.6848   YY=   199.9370   ZY=    -9.8822
   XZ=    -0.4342   YZ=   -11.1942   ZZ=   226.9664
   Eigenvalues:   189.9105   219.4215   231.3579
     16  C    Isotropic =   215.6676   Anisotropy =    17.6252
   XX=   224.1081   YX=    -6.9253   ZX=    -7.5535
   XY=    -9.1438   YY=   206.4069   ZY=   -14.9120
   XZ=    -3.0648   YZ=    -7.0513   ZZ=   216.4879
   Eigenvalues:   196.0584   223.5267   227.4178
     17  C    Isotropic =   196.5197   Anisotropy =    50.5665
   XX=   200.1065   YX=   -14.7471   ZX=     6.9961
   XY=    -7.9991   YY=   171.7046   ZY=   -17.5418
   XZ=    14.3520   YZ=   -17.8427   ZZ=   217.7479
   Eigenvalues:   164.0559   195.2725   230.2307
     18  O    Isotropic =  -355.7362   Anisotropy =  1285.1213
   XX=  -347.5238   YX=   120.3793   ZX=   247.3313
   XY=   128.1980   YY= -1142.9884   ZY=   -98.0203
   XZ=   264.4075   YZ=   -36.8567   ZZ=   423.3038
   Eigenvalues: -1169.2345  -398.9854   501.0114
     19  C    Isotropic =   218.2981   Anisotropy =    23.6360
   XX=   217.3177   YX=    -6.0318   ZX=    -0.6909
   XY=    -6.2801   YY=   231.3255   ZY=    -4.1830
   XZ=     1.0648   YZ=    -2.8770   ZZ=   206.2512
   Eigenvalues:   205.7212   215.1178   234.0555
     20  H    Isotropic =    30.9381   Anisotropy =    13.2973
   XX=    27.3633   YX=    -1.1427   ZX=     1.3302
   XY=    -0.3837   YY=    30.3329   ZY=    -6.0211
   XZ=    -2.2020   YZ=    -7.2993   ZZ=    35.1181
   Eigenvalues:    25.2808    27.7305    39.8030
     21  H    Isotropic =    31.1632   Anisotropy =    11.0621
   XX=    30.6420   YX=     0.8857   ZX=     4.2727
   XY=     0.3951   YY=    26.2121   ZY=     1.9745
   XZ=     1.2951   YZ=     4.2974   ZZ=    36.6357
   Eigenvalues:    25.3378    29.6139    38.5380
     22  H    Isotropic =    30.6128   Anisotropy =    14.7808
   XX=    26.3739   YX=    -1.6606   ZX=     0.2104
   XY=     0.7013   YY=    40.4498   ZY=    -0.5005
   XZ=     2.4811   YZ=     0.4110   ZZ=    25.0146
   Eigenvalues:    24.1838    27.1878    40.4667
     23  H    Isotropic =    25.8660   Anisotropy =     5.8066
   XX=    27.2052   YX=     0.8636   ZX=    -1.1728
   XY=     0.9533   YY=    28.9028   ZY=    -1.5764
   XZ=    -0.9664   YZ=    -1.6370   ZZ=    21.4899
   Eigenvalues:    21.0331    26.8278    29.7370
     24  H    Isotropic =    25.3097   Anisotropy =     3.8227
   XX=    27.4982   YX=    -0.4567   ZX=    -0.9568
   XY=    -0.7524   YY=    26.6855   ZY=    -0.7772
   XZ=    -0.9894   YZ=    -1.0126   ZZ=    21.7453
   Eigenvalues:    21.4018    26.6691    27.8582
     25  H    Isotropic =    25.7312   Anisotropy =     7.3970
   XX=    28.6004   YX=     1.9994   ZX=    -1.8419
   XY=     1.6331   YY=    27.7351   ZY=    -1.5765
   XZ=    -1.6077   YZ=    -2.0493   ZZ=    20.8582
   Eigenvalues:    20.2129    26.3183    30.6626
     26  H    Isotropic =    31.6985   Anisotropy =     9.5623
   XX=    29.6049   YX=    -2.1344   ZX=     1.2726
   XY=    -1.8749   YY=    35.4919   ZY=    -3.5790
   XZ=     1.5422   YZ=    -3.8836   ZZ=    29.9986
   Eigenvalues:    27.9875    29.0346    38.0733
     27  H    Isotropic =    31.7613   Anisotropy =    15.8978
   XX=    28.7915   YX=    -1.3127   ZX=    -1.6473
   XY=    -0.9017   YY=    31.9396   ZY=     8.0856
   XZ=    -2.2471   YZ=     9.2329   ZZ=    34.5528
   Eigenvalues:    24.4434    28.4806    42.3598
     28  H    Isotropic =    31.6576   Anisotropy =    13.7992
   XX=    28.2929   YX=     0.7479   ZX=    -2.3839
   XY=     1.1022   YY=    28.1001   ZY=    -3.5207
   XZ=    -3.7019   YZ=    -4.8731   ZZ=    38.5798
   Eigenvalues:    26.6070    27.5088    40.8571
     29  H    Isotropic =    31.7395   Anisotropy =    14.7192
   XX=    38.5402   YX=    -3.4267   ZX=    -3.7268
   XY=    -4.6698   YY=    27.6999   ZY=     2.8660
   XZ=    -4.0394   YZ=     2.6529   ZZ=    28.9783
   Eigenvalues:    25.4332    28.2330    41.5523
     30  H    Isotropic =    33.0940   Anisotropy =    10.9170
   XX=    39.8942   YX=     1.9325   ZX=    -2.4085
   XY=     2.9819   YY=    26.4200   ZY=     0.9522
   XZ=     1.1009   YZ=    -0.0793   ZZ=    32.9678
   Eigenvalues:    25.9437    32.9663    40.3720
     31  H    Isotropic =    32.2709   Anisotropy =    15.5251
   XX=    26.9335   YX=    -1.5065   ZX=    -0.1000
   XY=    -1.2113   YY=    34.5605   ZY=     7.2890
   XZ=     1.6598   YZ=     8.0372   ZZ=    35.3186
   Eigenvalues:    25.5647    28.6270    42.6209
     32  H    Isotropic =    32.1170   Anisotropy =     9.0030
   XX=    29.2205   YX=     2.3337   ZX=     0.9981
   XY=     2.6243   YY=    37.3332   ZY=    -1.2313
   XZ=     2.5530   YZ=    -1.4996   ZZ=    29.7973
   Eigenvalues:    26.9633    31.2687    38.1190
     33  H    Isotropic =    32.4077   Anisotropy =    16.6332
   XX=    28.7394   YX=    -1.1166   ZX=     3.5709
   XY=    -0.8586   YY=    26.5244   ZY=    -2.4423
   XZ=     4.5482   YZ=    -2.3472   ZZ=    41.9591
   Eigenvalues:    26.0766    27.6499    43.4964
     34  H    Isotropic =    31.8300   Anisotropy =    13.4116
   XX=    37.0285   YX=    -6.3885   ZX=     0.6978
   XY=    -6.2650   YY=    29.5730   ZY=     0.2656
   XZ=     1.8883   YZ=    -0.6904   ZZ=    28.8885
   Eigenvalues:    25.8854    28.8335    40.7711
     35  H    Isotropic =    31.3360   Anisotropy =    15.5215
   XX=    34.9041   YX=     5.7094   ZX=     4.5575
   XY=     5.5949   YY=    28.9328   ZY=     2.4589
   XZ=     6.1716   YZ=     3.8831   ZZ=    30.1712
   Eigenvalues:    25.5244    26.8000    41.6837
     36  H    Isotropic =    31.2739   Anisotropy =    10.2168
   XX=    30.0289   YX=    -0.9506   ZX=    -2.5139
   XY=    -0.6823   YY=    31.4377   ZY=    -4.7320
   XZ=    -0.0867   YZ=    -7.5712   ZZ=    32.3551
   Eigenvalues:    25.2649    30.4717    38.0851
     37  H    Isotropic =    31.0043   Anisotropy =    12.2919
   XX=    38.8024   YX=    -1.6334   ZX=    -0.9839
   XY=    -2.1366   YY=    30.0570   ZY=    -0.8537
   XZ=    -0.1855   YZ=    -1.5029   ZZ=    24.1535
   Eigenvalues:    23.8672    29.9468    39.1989
     38  H    Isotropic =    30.7186   Anisotropy =    11.3434
   XX=    29.1702   YX=     1.3379   ZX=     1.5502
   XY=     0.6749   YY=    34.5187   ZY=     4.4830
   XZ=     0.4175   YZ=     7.2065   ZZ=    28.4669
   Eigenvalues:    24.8869    28.9880    38.2809
 End of Minotr F.D. properties file   721 does not exist.
 End of Minotr F.D. properties file   722 does not exist.
 End of Minotr F.D. properties file   788 does not exist.

 **********************************************************************

            Population analysis using the SCF Density.

 **********************************************************************

 Orbital symmetries:
       Occupied  (A) (A) (A) (A) (A) (A) (A) (A) (A) (A) (A) (A)
                 (A) (A) (A) (A) (A) (A) (A) (A) (A) (A) (A) (A)
                 (A) (A) (A) (A) (A) (A) (A) (A) (A) (A) (A) (A)
                 (A) (A) (A) (A) (A) (A) (A) (A) (A) (A) (A) (A)
                 (A) (A) (A) (A) (A) (A) (A) (A) (A) (A) (A) (A)
                 (A) (A) (A) (A) (A) (A) (A) (A) (A)
       Virtual   (A) (A) (A) (A) (A) (A) (A) (A) (A) (A) (A) (A)
                 (A) (A) (A) (A) (A) (A) (A) (A) (A) (A) (A) (A)
                 (A) (A) (A) (A) (A) (A) (A) (A) (A) (A) (A) (A)
                 (A) (A) (A) (A) (A) (A) (A) (A) (A)
 The electronic state is 1-A.
 Alpha  occ. eigenvalues --  -20.29895 -20.26421 -15.30755 -11.11825 -11.11380
 Alpha  occ. eigenvalues --  -11.09796 -11.07778 -11.07682 -11.06654 -11.06462
 Alpha  occ. eigenvalues --  -11.05397 -11.05164 -11.04458 -11.04168 -11.03993
 Alpha  occ. eigenvalues --  -11.03881 -11.03125 -11.02500 -11.02180  -1.34717
 Alpha  occ. eigenvalues --   -1.31641  -1.19233  -1.10012  -1.04861  -1.02794
 Alpha  occ. eigenvalues --   -0.99320  -0.98188  -0.95553  -0.91776  -0.88512
 Alpha  occ. eigenvalues --   -0.84325  -0.80518  -0.78486  -0.75477  -0.74340
 Alpha  occ. eigenvalues --   -0.71659  -0.68061  -0.65522  -0.65066  -0.62077
 Alpha  occ. eigenvalues --   -0.61540  -0.60806  -0.58029  -0.56606  -0.55911
 Alpha  occ. eigenvalues --   -0.55438  -0.54868  -0.53045  -0.52595  -0.51758
 Alpha  occ. eigenvalues --   -0.50834  -0.49855  -0.49042  -0.48853  -0.47366
 Alpha  occ. eigenvalues --   -0.46240  -0.45484  -0.45123  -0.44014  -0.42937
 Alpha  occ. eigenvalues --   -0.42847  -0.41921  -0.40274  -0.38712  -0.36744
 Alpha  occ. eigenvalues --   -0.31763  -0.27475  -0.26935  -0.24945
 Alpha virt. eigenvalues --    0.21009   0.26606   0.34210   0.48593   0.51314
 Alpha virt. eigenvalues --    0.53192   0.55089   0.56178   0.57119   0.59079
 Alpha virt. eigenvalues --    0.60163   0.60794   0.61594   0.63495   0.63925
 Alpha virt. eigenvalues --    0.66370   0.66948   0.67825   0.68658   0.69468
 Alpha virt. eigenvalues --    0.70307   0.71539   0.72926   0.73092   0.73546
 Alpha virt. eigenvalues --    0.73923   0.74304   0.74934   0.75560   0.77231
 Alpha virt. eigenvalues --    0.78117   0.79593   0.80224   0.80627   0.82459
 Alpha virt. eigenvalues --    0.84152   0.85749   0.86227   0.86937   0.87112
 Alpha virt. eigenvalues --    0.90869   0.93222   1.00394   1.11651   1.13458
          Condensed to atoms (all electrons):
               1          2          3          4          5          6
     1  C    4.758167   0.505428  -0.028658  -0.009972  -0.028064   0.497293
     2  C    0.505428   4.805976   0.504215  -0.031368  -0.011423  -0.031267
     3  C   -0.028658   0.504215   4.759499   0.508592  -0.029433  -0.009576
     4  C   -0.009972  -0.031368   0.508592   4.806432   0.499601  -0.032509
     5  C   -0.028064  -0.011423  -0.029433   0.499601   4.757339   0.490038
     6  C    0.497293  -0.031267  -0.009576  -0.032509   0.490038   4.871936
     7  C   -0.023471   0.000772   0.000019   0.000808  -0.029914   0.389874
     8  O    0.000251   0.000008   0.000353  -0.026861   0.292784  -0.017479
     9  C    0.000033   0.000000  -0.000021   0.001629  -0.041222  -0.007641
    10  C    0.000614  -0.000007  -0.000000  -0.000039  -0.004291  -0.034479
    11  C    0.000000  -0.000000   0.000000  -0.000015   0.001674  -0.000002
    12  C   -0.000000  -0.000000  -0.000000   0.000000  -0.000016  -0.000000
    13  N    0.000000  -0.000000  -0.000000  -0.000000  -0.000000  -0.000003
    14  C   -0.000004   0.000000   0.000000   0.000000   0.000040   0.000457
    15  C   -0.000001   0.000000   0.000000  -0.000001  -0.000142  -0.000115
    16  C    0.000000  -0.000000  -0.000000   0.000000   0.000003   0.000001
    17  C   -0.000000   0.000000   0.000000  -0.000000  -0.000000   0.000000
    18  O   -0.001021  -0.000004  -0.000000  -0.000002   0.000314  -0.027710
    19  C    0.381468  -0.030056   0.000874   0.000011   0.000721  -0.024247
    20  H   -0.000019   0.000000  -0.000000   0.000002   0.000042   0.000964
    21  H   -0.000009  -0.000002  -0.000000   0.000157  -0.003830   0.000516
    22  H   -0.000000   0.000000   0.000000   0.000000  -0.000003   0.000011
    23  H   -0.025056   0.394153  -0.026747   0.001416   0.000049   0.001267
    24  H    0.001319  -0.024818   0.393596  -0.025143   0.001375   0.000008
    25  H    0.000035   0.001378  -0.024568   0.393472  -0.025304   0.001240
    26  H    0.000000   0.000000   0.000000  -0.000005   0.000104   0.000001
    27  H   -0.000000  -0.000000  -0.000000   0.000001  -0.000039  -0.000000
    28  H    0.000000  -0.000000   0.000000   0.000000   0.000000  -0.000000
    29  H    0.000000   0.000000   0.000000  -0.000000   0.000000   0.000000
    30  H    0.000004  -0.000000  -0.000000  -0.000006  -0.000044  -0.000191
    31  H    0.000000   0.000000  -0.000000   0.000000   0.000001   0.000002
    32  H    0.000000   0.000000  -0.000000  -0.000000  -0.000003   0.000001
    33  H   -0.000000   0.000000  -0.000000  -0.000000   0.000000  -0.000000
    34  H    0.000000  -0.000000  -0.000000  -0.000000   0.000000  -0.000000
    35  H    0.000000  -0.000000  -0.000000  -0.000000   0.000000  -0.000000
    36  H   -0.021096   0.000920  -0.000023   0.000002   0.000005  -0.002319
    37  H   -0.020607  -0.005550   0.000059  -0.000000  -0.000016   0.001133
    38  H   -0.021135   0.000452  -0.000023   0.000003  -0.000004  -0.001398
               7          8          9         10         11         12
     1  C   -0.023471   0.000251   0.000033   0.000614   0.000000  -0.000000
     2  C    0.000772   0.000008   0.000000  -0.000007  -0.000000  -0.000000
     3  C    0.000019   0.000353  -0.000021  -0.000000   0.000000  -0.000000
     4  C    0.000808  -0.026861   0.001629  -0.000039  -0.000015   0.000000
     5  C   -0.029914   0.292784  -0.041222  -0.004291   0.001674  -0.000016
     6  C    0.389874  -0.017479  -0.007641  -0.034479  -0.000002  -0.000000
     7  C    4.762904  -0.002271  -0.021770   0.357572   0.000632   0.000046
     8  O   -0.002271   7.801695   0.261192  -0.016416  -0.019993   0.000257
     9  C   -0.021770   0.261192   4.742398   0.357469   0.358545  -0.021159
    10  C    0.357572  -0.016416   0.357469   4.828804  -0.022451  -0.010084
    11  C    0.000632  -0.019993   0.358545  -0.022451   4.778844   0.359630
    12  C    0.000046   0.000257  -0.021159  -0.010084   0.359630   4.698985
    13  N    0.000358   0.000004  -0.002251  -0.016243  -0.021849   0.330835
    14  C   -0.020480   0.000005  -0.021080   0.357196  -0.005606  -0.030461
    15  C   -0.002359  -0.000113  -0.000730  -0.020037   0.000199   0.000907
    16  C    0.000017  -0.000083   0.000031   0.000594  -0.000416   0.000778
    17  C   -0.000009  -0.000000   0.000064   0.000916  -0.000472  -0.034981
    18  O    0.432307   0.000000   0.000303  -0.026006  -0.000001  -0.000000
    19  C   -0.002652  -0.000001  -0.000000   0.000008  -0.000000   0.000000
    20  H   -0.023506   0.000590  -0.022931   0.378394  -0.000397  -0.000775
    21  H   -0.000675  -0.019077   0.378581  -0.027036  -0.024840   0.000897
    22  H   -0.001518  -0.000008   0.001234  -0.026525  -0.000042   0.001519
    23  H   -0.000014   0.000000  -0.000000   0.000000   0.000000  -0.000000
    24  H    0.000001  -0.000005   0.000000  -0.000000  -0.000000   0.000000
    25  H   -0.000019  -0.001079   0.000034   0.000000  -0.000003   0.000000
    26  H   -0.000018  -0.002056  -0.020927   0.000630   0.380681  -0.021338
    27  H   -0.000012   0.000525  -0.021994   0.001156   0.382077  -0.021105
    28  H    0.000008  -0.000003  -0.001746  -0.000984  -0.026624   0.380926
    29  H    0.000000  -0.000005   0.001186   0.000092  -0.022588   0.383450
    30  H   -0.000214  -0.000064   0.000125  -0.003855   0.000018  -0.000035
    31  H    0.000045   0.000003  -0.000006   0.001116  -0.000005  -0.000017
    32  H    0.000003   0.000147  -0.000086   0.000002  -0.000820   0.000019
    33  H   -0.000000   0.000001  -0.000000  -0.000012   0.000008  -0.000021
    34  H    0.000000   0.000000   0.000001  -0.000024   0.000126  -0.005769
    35  H    0.000000  -0.000000  -0.000002  -0.000023  -0.000040   0.001782
    36  H   -0.000095  -0.000000  -0.000000  -0.000003  -0.000000   0.000000
    37  H    0.000016   0.000000   0.000000   0.000000   0.000000  -0.000000
    38  H   -0.000039  -0.000000  -0.000000  -0.000003   0.000000  -0.000000
              13         14         15         16         17         18
     1  C    0.000000  -0.000004  -0.000001   0.000000  -0.000000  -0.001021
     2  C   -0.000000   0.000000   0.000000  -0.000000   0.000000  -0.000004
     3  C   -0.000000   0.000000   0.000000  -0.000000   0.000000  -0.000000
     4  C   -0.000000   0.000000  -0.000001   0.000000  -0.000000  -0.000002
     5  C   -0.000000   0.000040  -0.000142   0.000003  -0.000000   0.000314
     6  C   -0.000003   0.000457  -0.000115   0.000001   0.000000  -0.027710
     7  C    0.000358  -0.020480  -0.002359   0.000017  -0.000009   0.432307
     8  O    0.000004   0.000005  -0.000113  -0.000083  -0.000000   0.000000
     9  C   -0.002251  -0.021080  -0.000730   0.000031   0.000064   0.000303
    10  C   -0.016243   0.357196  -0.020037   0.000594   0.000916  -0.026006
    11  C   -0.021849  -0.005606   0.000199  -0.000416  -0.000472  -0.000001
    12  C    0.330835  -0.030461   0.000907   0.000778  -0.034981  -0.000000
    13  N    6.507672   0.327283  -0.028197  -0.031794   0.331950  -0.000000
    14  C    0.327283   4.735873   0.359839  -0.034301  -0.044129  -0.001007
    15  C   -0.028197   0.359839   4.776721   0.364921  -0.038416   0.000003
    16  C   -0.031794  -0.034301   0.364921   4.767096   0.364333   0.000000
    17  C    0.331950  -0.044129  -0.038416   0.364333   4.716351  -0.000000
    18  O   -0.000000  -0.001007   0.000003   0.000000  -0.000000   7.854678
    19  C    0.000000  -0.000000  -0.000000  -0.000000  -0.000000  -0.001456
    20  H   -0.000822  -0.021844   0.001183  -0.000022  -0.000004  -0.001595
    21  H   -0.000002   0.001229  -0.000006  -0.000000   0.000000  -0.000002
    22  H   -0.027880   0.384044  -0.027157   0.001218   0.001566   0.000337
    23  H    0.000000  -0.000000   0.000000   0.000000  -0.000000   0.000000
    24  H   -0.000000   0.000000  -0.000000  -0.000000  -0.000000  -0.000000
    25  H    0.000000  -0.000000  -0.000000  -0.000000  -0.000000   0.000000
    26  H   -0.000932   0.000138  -0.000053  -0.000870   0.000219   0.000000
    27  H    0.000905   0.000019  -0.000000   0.000010  -0.000014   0.000000
    28  H   -0.024905  -0.000546  -0.000034  -0.000048   0.001848   0.000000
    29  H   -0.017959   0.001495  -0.000030   0.000030  -0.005013   0.000000
    30  H    0.000785  -0.018086   0.383504  -0.020348   0.001630  -0.000017
    31  H    0.000688  -0.021943   0.384256  -0.023244  -0.000264  -0.000009
    32  H   -0.000032   0.000155  -0.022439   0.383957  -0.021998   0.000000
    33  H    0.001053   0.001486  -0.019606   0.383898  -0.019359   0.000000
    34  H   -0.015059   0.001587   0.001611  -0.020383   0.382792   0.000000
    35  H   -0.026740   0.000847  -0.001188  -0.025794   0.381765   0.000000
    36  H   -0.000000  -0.000000  -0.000000   0.000000  -0.000000  -0.000220
    37  H    0.000000   0.000000  -0.000000   0.000000   0.000000   0.000057
    38  H   -0.000000   0.000000   0.000000  -0.000000   0.000000  -0.000416
              19         20         21         22         23         24
     1  C    0.381468  -0.000019  -0.000009  -0.000000  -0.025056   0.001319
     2  C   -0.030056   0.000000  -0.000002   0.000000   0.394153  -0.024818
     3  C    0.000874  -0.000000  -0.000000   0.000000  -0.026747   0.393596
     4  C    0.000011   0.000002   0.000157   0.000000   0.001416  -0.025143
     5  C    0.000721   0.000042  -0.003830  -0.000003   0.000049   0.001375
     6  C   -0.024247   0.000964   0.000516   0.000011   0.001267   0.000008
     7  C   -0.002652  -0.023506  -0.000675  -0.001518  -0.000014   0.000001
     8  O   -0.000001   0.000590  -0.019077  -0.000008   0.000000  -0.000005
     9  C   -0.000000  -0.022931   0.378581   0.001234  -0.000000   0.000000
    10  C    0.000008   0.378394  -0.027036  -0.026525   0.000000  -0.000000
    11  C   -0.000000  -0.000397  -0.024840  -0.000042   0.000000  -0.000000
    12  C    0.000000  -0.000775   0.000897   0.001519  -0.000000   0.000000
    13  N    0.000000  -0.000822  -0.000002  -0.027880   0.000000  -0.000000
    14  C   -0.000000  -0.021844   0.001229   0.384044  -0.000000   0.000000
    15  C   -0.000000   0.001183  -0.000006  -0.027157   0.000000  -0.000000
    16  C   -0.000000  -0.000022  -0.000000   0.001218   0.000000  -0.000000
    17  C   -0.000000  -0.000004   0.000000   0.001566  -0.000000  -0.000000
    18  O   -0.001456  -0.001595  -0.000002   0.000337   0.000000  -0.000000
    19  C    4.713249  -0.000000  -0.000000   0.000000  -0.004188  -0.000016
    20  H   -0.000000   0.626956  -0.004395  -0.004016  -0.000000   0.000000
    21  H   -0.000000  -0.004395   0.649195  -0.000039  -0.000000   0.000000
    22  H    0.000000  -0.004016  -0.000039   0.638892  -0.000000   0.000000
    23  H   -0.004188  -0.000000  -0.000000  -0.000000   0.604221  -0.003742
    24  H   -0.000016   0.000000   0.000000   0.000000  -0.003742   0.593656
    25  H    0.000000   0.000000   0.000001  -0.000000  -0.000032  -0.003698
    26  H   -0.000000  -0.000001   0.001618   0.000000   0.000000  -0.000000
    27  H    0.000000   0.000001  -0.007591   0.000003  -0.000000   0.000000
    28  H   -0.000000  -0.000842   0.000123   0.000161   0.000000  -0.000000
    29  H   -0.000000   0.000012  -0.000030  -0.000030   0.000000  -0.000000
    30  H    0.000000   0.000046  -0.000009   0.001298   0.000000  -0.000000
    31  H    0.000000  -0.000032   0.000000  -0.007604  -0.000000   0.000000
    32  H    0.000000  -0.000001   0.000003  -0.000021  -0.000000   0.000000
    33  H   -0.000000   0.000001  -0.000000  -0.000033  -0.000000   0.000000
    34  H    0.000000  -0.000000  -0.000000  -0.000037   0.000000  -0.000000
    35  H    0.000000  -0.000001  -0.000000   0.000227   0.000000  -0.000000
    36  H    0.380862   0.000001   0.000000   0.000000   0.000063   0.000000
    37  H    0.382730  -0.000000   0.000000  -0.000000   0.000181  -0.000003
    38  H    0.380621   0.000000  -0.000000  -0.000000   0.000075   0.000000
              25         26         27         28         29         30
     1  C    0.000035   0.000000  -0.000000   0.000000   0.000000   0.000004
     2  C    0.001378   0.000000  -0.000000  -0.000000   0.000000  -0.000000
     3  C   -0.024568   0.000000  -0.000000   0.000000   0.000000  -0.000000
     4  C    0.393472  -0.000005   0.000001   0.000000  -0.000000  -0.000006
     5  C   -0.025304   0.000104  -0.000039   0.000000   0.000000  -0.000044
     6  C    0.001240   0.000001  -0.000000  -0.000000   0.000000  -0.000191
     7  C   -0.000019  -0.000018  -0.000012   0.000008   0.000000  -0.000214
     8  O   -0.001079  -0.002056   0.000525  -0.000003  -0.000005  -0.000064
     9  C    0.000034  -0.020927  -0.021994  -0.001746   0.001186   0.000125
    10  C    0.000000   0.000630   0.001156  -0.000984   0.000092  -0.003855
    11  C   -0.000003   0.380681   0.382077  -0.026624  -0.022588   0.000018
    12  C    0.000000  -0.021338  -0.021105   0.380926   0.383450  -0.000035
    13  N    0.000000  -0.000932   0.000905  -0.024905  -0.017959   0.000785
    14  C   -0.000000   0.000138   0.000019  -0.000546   0.001495  -0.018086
    15  C   -0.000000  -0.000053  -0.000000  -0.000034  -0.000030   0.383504
    16  C   -0.000000  -0.000870   0.000010  -0.000048   0.000030  -0.020348
    17  C   -0.000000   0.000219  -0.000014   0.001848  -0.005013   0.001630
    18  O    0.000000   0.000000   0.000000   0.000000   0.000000  -0.000017
    19  C    0.000000  -0.000000   0.000000  -0.000000  -0.000000   0.000000
    20  H    0.000000  -0.000001   0.000001  -0.000842   0.000012   0.000046
    21  H    0.000001   0.001618  -0.007591   0.000123  -0.000030  -0.000009
    22  H   -0.000000   0.000000   0.000003   0.000161  -0.000030   0.001298
    23  H   -0.000032   0.000000  -0.000000   0.000000   0.000000   0.000000
    24  H   -0.003698  -0.000000   0.000000  -0.000000  -0.000000  -0.000000
    25  H    0.589161  -0.000001   0.000000  -0.000000  -0.000000   0.000000
    26  H   -0.000001   0.619133  -0.023121   0.001949  -0.002869   0.000003
    27  H    0.000000  -0.023121   0.633968  -0.002761  -0.001441  -0.000000
    28  H   -0.000000   0.001949  -0.002761   0.640885  -0.023436   0.000001
    29  H   -0.000000  -0.002869  -0.001441  -0.023436   0.622309   0.000002
    30  H    0.000000   0.000003  -0.000000   0.000001   0.000002   0.624710
    31  H   -0.000000   0.000001   0.000000   0.000000   0.000001  -0.023662
    32  H    0.000000  -0.000553   0.000013  -0.000002   0.000027  -0.004931
    33  H    0.000000   0.000017  -0.000000   0.000001  -0.000002   0.000381
    34  H    0.000000   0.000021  -0.000016   0.000069  -0.000520  -0.000041
    35  H   -0.000000  -0.000003   0.000001  -0.000034   0.000136  -0.000001
    36  H   -0.000000   0.000000   0.000000   0.000000  -0.000000   0.000000
    37  H    0.000000  -0.000000  -0.000000   0.000000   0.000000  -0.000000
    38  H   -0.000000  -0.000000  -0.000000  -0.000000   0.000000  -0.000000
              31         32         33         34         35         36
     1  C    0.000000   0.000000  -0.000000   0.000000   0.000000  -0.021096
     2  C    0.000000   0.000000   0.000000  -0.000000  -0.000000   0.000920
     3  C   -0.000000  -0.000000  -0.000000  -0.000000  -0.000000  -0.000023
     4  C    0.000000  -0.000000  -0.000000  -0.000000  -0.000000   0.000002
     5  C    0.000001  -0.000003   0.000000   0.000000   0.000000   0.000005
     6  C    0.000002   0.000001  -0.000000  -0.000000  -0.000000  -0.002319
     7  C    0.000045   0.000003  -0.000000   0.000000   0.000000  -0.000095
     8  O    0.000003   0.000147   0.000001   0.000000  -0.000000  -0.000000
     9  C   -0.000006  -0.000086  -0.000000   0.000001  -0.000002  -0.000000
    10  C    0.001116   0.000002  -0.000012  -0.000024  -0.000023  -0.000003
    11  C   -0.000005  -0.000820   0.000008   0.000126  -0.000040  -0.000000
    12  C   -0.000017   0.000019  -0.000021  -0.005769   0.001782   0.000000
    13  N    0.000688  -0.000032   0.001053  -0.015059  -0.026740  -0.000000
    14  C   -0.021943   0.000155   0.001486   0.001587   0.000847  -0.000000
    15  C    0.384256  -0.022439  -0.019606   0.001611  -0.001188  -0.000000
    16  C   -0.023244   0.383957   0.383898  -0.020383  -0.025794   0.000000
    17  C   -0.000264  -0.021998  -0.019359   0.382792   0.381765  -0.000000
    18  O   -0.000009   0.000000   0.000000   0.000000   0.000000  -0.000220
    19  C    0.000000   0.000000  -0.000000   0.000000   0.000000   0.380862
    20  H   -0.000032  -0.000001   0.000001  -0.000000  -0.000001   0.000001
    21  H    0.000000   0.000003  -0.000000  -0.000000  -0.000000   0.000000
    22  H   -0.007604  -0.000021  -0.000033  -0.000037   0.000227   0.000000
    23  H   -0.000000  -0.000000  -0.000000   0.000000   0.000000   0.000063
    24  H    0.000000   0.000000   0.000000  -0.000000  -0.000000   0.000000
    25  H   -0.000000   0.000000   0.000000   0.000000  -0.000000  -0.000000
    26  H    0.000001  -0.000553   0.000017   0.000021  -0.000003   0.000000
    27  H    0.000000   0.000013  -0.000000  -0.000016   0.000001   0.000000
    28  H    0.000000  -0.000002   0.000001   0.000069  -0.000034   0.000000
    29  H    0.000001   0.000027  -0.000002  -0.000520   0.000136  -0.000000
    30  H   -0.023662  -0.004931   0.000381  -0.000041  -0.000001   0.000000
    31  H    0.636073   0.002006  -0.005156  -0.000012   0.000185   0.000000
    32  H    0.002006   0.632919  -0.023362  -0.004116   0.001955   0.000000
    33  H   -0.005156  -0.023362   0.627469   0.000305  -0.004042   0.000000
    34  H   -0.000012  -0.004116   0.000305   0.624926  -0.024709   0.000000
    35  H    0.000185   0.001955  -0.004042  -0.024709   0.639471   0.000000
    36  H    0.000000   0.000000   0.000000   0.000000   0.000000   0.610045
    37  H    0.000000  -0.000000  -0.000000   0.000000   0.000000  -0.022234
    38  H   -0.000000  -0.000000   0.000000  -0.000000  -0.000000  -0.018464
              37         38
     1  C   -0.020607  -0.021135
     2  C   -0.005550   0.000452
     3  C    0.000059  -0.000023
     4  C   -0.000000   0.000003
     5  C   -0.000016  -0.000004
     6  C    0.001133  -0.001398
     7  C    0.000016  -0.000039
     8  O    0.000000  -0.000000
     9  C    0.000000  -0.000000
    10  C    0.000000  -0.000003
    11  C    0.000000   0.000000
    12  C   -0.000000  -0.000000
    13  N    0.000000  -0.000000
    14  C    0.000000   0.000000
    15  C   -0.000000   0.000000
    16  C    0.000000  -0.000000
    17  C    0.000000   0.000000
    18  O    0.000057  -0.000416
    19  C    0.382730   0.380621
    20  H   -0.000000   0.000000
    21  H    0.000000  -0.000000
    22  H   -0.000000  -0.000000
    23  H    0.000181   0.000075
    24  H   -0.000003   0.000000
    25  H    0.000000  -0.000000
    26  H   -0.000000  -0.000000
    27  H   -0.000000  -0.000000
    28  H    0.000000  -0.000000
    29  H    0.000000   0.000000
    30  H   -0.000000  -0.000000
    31  H    0.000000  -0.000000
    32  H   -0.000000  -0.000000
    33  H   -0.000000   0.000000
    34  H    0.000000  -0.000000
    35  H    0.000000  -0.000000
    36  H   -0.022234  -0.018464
    37  H    0.624356  -0.021556
    38  H   -0.021556   0.602988
 Mulliken charges:
               1
     1  C    0.034502
     2  C   -0.078808
     3  C   -0.048157
     4  C   -0.086202
     5  C    0.129657
     6  C   -0.065805
     7  C    0.183654
     8  O   -0.252300
     9  C    0.080740
    10  C   -0.076044
    11  C   -0.116269
    12  C   -0.014268
    13  N   -0.286864
    14  C    0.047794
    15  C   -0.112521
    16  C   -0.109588
    17  C   -0.018775
    18  O   -0.228534
    19  C   -0.177927
    20  H    0.073011
    21  H    0.055223
    22  H    0.064401
    23  H    0.058355
    24  H    0.067469
    25  H    0.069382
    26  H    0.068235
    27  H    0.059415
    28  H    0.055994
    29  H    0.065184
    30  H    0.058998
    31  H    0.057578
    32  H    0.057158
    33  H    0.056975
    34  H    0.059249
    35  H    0.056207
    36  H    0.072555
    37  H    0.061432
    38  H    0.078897
 Sum of Mulliken charges =  -0.00000
 Mulliken charges with hydrogens summed into heavy atoms:
               1
     1  C    0.034502
     2  C   -0.020454
     3  C    0.019312
     4  C   -0.016820
     5  C    0.129657
     6  C   -0.065805
     7  C    0.183654
     8  O   -0.252300
     9  C    0.135963
    10  C   -0.003032
    11  C    0.011380
    12  C    0.106910
    13  N   -0.286864
    14  C    0.112194
    15  C    0.004056
    16  C    0.004545
    17  C    0.096680
    18  O   -0.228534
    19  C    0.034957
 Electronic spatial extent (au):  <R**2>=           4693.7677
 Charge=              0.0000 electrons
 Dipole moment (field-independent basis, Debye):
    X=             -0.4186    Y=             -1.7723    Z=             -0.4717  Tot=              1.8812
 Quadrupole moment (field-independent basis, Debye-Ang):
   XX=           -102.7828   YY=           -111.4298   ZZ=           -102.2538
   XY=             -2.4313   XZ=              0.2372   YZ=              1.3862
 Traceless Quadrupole moment (field-independent basis, Debye-Ang):
   XX=              2.7060   YY=             -5.9410   ZZ=              3.2350
   XY=             -2.4313   XZ=              0.2372   YZ=              1.3862
 Octapole moment (field-independent basis, Debye-Ang**2):
  XXX=            -28.1639  YYY=            -13.4497  ZZZ=             -8.6686  XYY=             -2.1319
  XXY=            -17.2897  XXZ=              8.3031  XZZ=              8.4673  YZZ=              4.7517
  YYZ=              3.5488  XYZ=              6.3862
 Hexadecapole moment (field-independent basis, Debye-Ang**3):
 XXXX=          -4084.9978 YYYY=          -1160.5939 ZZZZ=           -672.3864 XXXY=            -73.4213
 XXXZ=             -2.1187 YYYX=             20.0531 YYYZ=             -1.0803 ZZZX=              4.5406
 ZZZY=              0.4560 XXYY=           -870.6373 XXZZ=           -806.3541 YYZZ=           -294.7807
 XXYZ=              2.7987 YYXZ=             -6.3765 ZZXY=             -5.4720
 N-N= 1.517261886830D+03 E-N=-4.929655956996D+03  KE= 8.035898227857D+02
 ******************************Gaussian NBO Version 3.1******************************
             N A T U R A L   A T O M I C   O R B I T A L   A N D
          N A T U R A L   B O N D   O R B I T A L   A N A L Y S I S
 ******************************Gaussian NBO Version 3.1******************************
       /RESON  / : Allow strongly delocalized NBO set
       /NLMO   / : Form Natural Localized Molecular Orbitals
       /NMR /    : Analyze NMR Sheilding Tensor 

 Analyzing the SCF density

 Job title: Title Card Required                                             

 Storage needed:     43472 in NPA,     53775 in NBO,    102144 in NLMO ( 104850000 available)
 GSVD:  LWork=      -13908 too small for GESVD, short by       66690 words or       66690 for optimal perf.


 NATURAL POPULATIONS:  Natural atomic orbital occupancies 
                                                          
   NAO  Atom  No  lang   Type(AO)    Occupancy      Energy
 ----------------------------------------------------------
     1    C    1  S      Cor( 1S)     1.99991     -10.98551
     2    C    1  S      Val( 2S)     1.08131      -0.20193
     3    C    1  px     Val( 2p)     0.95520       0.15686
     4    C    1  py     Val( 2p)     0.95361       0.14431
     5    C    1  pz     Val( 2p)     0.93391       0.02690

     6    C    2  S      Cor( 1S)     1.99995     -10.94939
     7    C    2  S      Val( 2S)     1.08047      -0.18788
     8    C    2  px     Val( 2p)     0.98022       0.14346
     9    C    2  py     Val( 2p)     0.97047       0.15095
    10    C    2  pz     Val( 2p)     1.04107       0.00306

    11    C    3  S      Cor( 1S)     1.99994     -10.96592
    12    C    3  S      Val( 2S)     1.08015      -0.19112
    13    C    3  px     Val( 2p)     0.98066       0.14020
    14    C    3  py     Val( 2p)     0.98508       0.13771
    15    C    3  pz     Val( 2p)     0.96187       0.01537

    16    C    4  S      Cor( 1S)     1.99994     -10.95085
    17    C    4  S      Val( 2S)     1.07715      -0.18766
    18    C    4  px     Val( 2p)     0.97661       0.14447
    19    C    4  py     Val( 2p)     0.98671       0.13745
    20    C    4  pz     Val( 2p)     1.05401      -0.00286

    21    C    5  S      Cor( 1S)     1.99978     -11.03319
    22    C    5  S      Val( 2S)     1.05934      -0.21537
    23    C    5  px     Val( 2p)     0.82316       0.15878
    24    C    5  py     Val( 2p)     0.96467       0.13594
    25    C    5  pz     Val( 2p)     0.96796      -0.00898

    26    C    6  S      Cor( 1S)     1.99991     -10.96297
    27    C    6  S      Val( 2S)     1.08677      -0.20918
    28    C    6  px     Val( 2p)     0.97843       0.13882
    29    C    6  py     Val( 2p)     0.96811       0.13579
    30    C    6  pz     Val( 2p)     1.09352      -0.01899

    31    C    7  S      Cor( 1S)     1.99996     -11.05780
    32    C    7  S      Val( 2S)     1.07636      -0.24521
    33    C    7  px     Val( 2p)     0.93347       0.10375
    34    C    7  py     Val( 2p)     0.85236       0.17524
    35    C    7  pz     Val( 2p)     0.89693      -0.00327

    36    O    8  S      Cor( 1S)     1.99999     -20.20777
    37    O    8  S      Val( 2S)     1.73390      -1.02275
    38    O    8  px     Val( 2p)     1.25251      -0.10470
    39    O    8  py     Val( 2p)     1.67927      -0.29721
    40    O    8  pz     Val( 2p)     1.59222      -0.25712

    41    C    9  S      Cor( 1S)     1.99988     -11.06223
    42    C    9  S      Val( 2S)     1.08632      -0.24291
    43    C    9  px     Val( 2p)     0.94900       0.05748
    44    C    9  py     Val( 2p)     0.91922       0.08330
    45    C    9  pz     Val( 2p)     0.89453       0.08175

    46    C   10  S      Cor( 1S)     1.99996     -11.00671
    47    C   10  S      Val( 2S)     1.10359      -0.23559
    48    C   10  px     Val( 2p)     0.99519       0.06432
    49    C   10  py     Val( 2p)     0.98158       0.07340
    50    C   10  pz     Val( 2p)     1.01443       0.05940

    51    C   11  S      Cor( 1S)     1.99996     -10.98986
    52    C   11  S      Val( 2S)     1.09064      -0.21091
    53    C   11  px     Val( 2p)     0.96956       0.07995
    54    C   11  py     Val( 2p)     1.00038       0.07542
    55    C   11  pz     Val( 2p)     1.03751       0.06561

    56    C   12  S      Cor( 1S)     1.99993     -11.01694
    57    C   12  S      Val( 2S)     1.07179      -0.20100
    58    C   12  px     Val( 2p)     1.00118       0.07235
    59    C   12  py     Val( 2p)     0.94544       0.09616
    60    C   12  pz     Val( 2p)     0.94223       0.08644

    61    N   13  S      Cor( 1S)     1.99999     -15.24389
    62    N   13  S      Val( 2S)     1.44037      -0.59204
    63    N   13  px     Val( 2p)     1.24398      -0.03604
    64    N   13  py     Val( 2p)     1.49664      -0.13297
    65    N   13  pz     Val( 2p)     1.09481       0.03052

    66    C   14  S      Cor( 1S)     1.99993     -11.02384
    67    C   14  S      Val( 2S)     1.08676      -0.21536
    68    C   14  px     Val( 2p)     0.86547       0.12052
    69    C   14  py     Val( 2p)     1.00534       0.07372
    70    C   14  pz     Val( 2p)     0.94546       0.09611

    71    C   15  S      Cor( 1S)     1.99997     -10.97666
    72    C   15  S      Val( 2S)     1.08608      -0.19457
    73    C   15  px     Val( 2p)     1.00670       0.09015
    74    C   15  py     Val( 2p)     1.00607       0.08518
    75    C   15  pz     Val( 2p)     0.98393       0.08476

    76    C   16  S      Cor( 1S)     1.99998     -10.97415
    77    C   16  S      Val( 2S)     1.07847      -0.18608
    78    C   16  px     Val( 2p)     0.98479       0.08458
    79    C   16  py     Val( 2p)     1.00475       0.09215
    80    C   16  pz     Val( 2p)     1.01014       0.09016

    81    C   17  S      Cor( 1S)     1.99994     -11.00554
    82    C   17  S      Val( 2S)     1.07411      -0.19296
    83    C   17  px     Val( 2p)     0.97834       0.09080
    84    C   17  py     Val( 2p)     1.00168       0.08593
    85    C   17  pz     Val( 2p)     0.91110       0.09810

    86    O   18  S      Cor( 1S)     1.99999     -20.11457
    87    O   18  S      Val( 2S)     1.80617      -1.06195
    88    O   18  px     Val( 2p)     1.84414      -0.32729
    89    O   18  py     Val( 2p)     1.37581      -0.12369
    90    O   18  pz     Val( 2p)     1.21320      -0.12436

    91    C   19  S      Cor( 1S)     1.99997     -10.97721
    92    C   19  S      Val( 2S)     1.07801      -0.18763
    93    C   19  px     Val( 2p)     1.02963       0.07531
    94    C   19  py     Val( 2p)     0.99628       0.07910
    95    C   19  pz     Val( 2p)     1.04290       0.07125

    96    H   20  S      Val( 1S)     0.94783       0.05373

    97    H   21  S      Val( 1S)     0.98108       0.03252

    98    H   22  S      Val( 1S)     0.96879       0.07131

    99    H   23  S      Val( 1S)     0.96715       0.06560

   100    H   24  S      Val( 1S)     0.96077       0.05992

   101    H   25  S      Val( 1S)     0.95552       0.07110

   102    H   26  S      Val( 1S)     0.95267       0.06885

   103    H   27  S      Val( 1S)     0.96072       0.06018

   104    H   28  S      Val( 1S)     0.97148       0.06050

   105    H   29  S      Val( 1S)     0.96100       0.05896

   106    H   30  S      Val( 1S)     0.96145       0.06958

   107    H   31  S      Val( 1S)     0.96255       0.07105

   108    H   32  S      Val( 1S)     0.96298       0.07468

   109    H   33  S      Val( 1S)     0.96204       0.07069

   110    H   34  S      Val( 1S)     0.96600       0.05941

   111    H   35  S      Val( 1S)     0.97147       0.07036

   112    H   36  S      Val( 1S)     0.94368       0.07875

   113    H   37  S      Val( 1S)     0.95515       0.07273

   114    H   38  S      Val( 1S)     0.93757       0.08333


 Summary of Natural Population Analysis:                  
                                                          
                                       Natural Population 
                Natural  -----------------------------------------------
    Atom  No    Charge         Core      Valence    Rydberg      Total
 -----------------------------------------------------------------------
      C    1    0.07606      1.99991     3.92403    0.00000     5.92394
      C    2   -0.07217      1.99995     4.07223    0.00000     6.07217
      C    3   -0.00770      1.99994     4.00776    0.00000     6.00770
      C    4   -0.09443      1.99994     4.09449    0.00000     6.09443
      C    5    0.18510      1.99978     3.81512    0.00000     5.81490
      C    6   -0.12674      1.99991     4.12683    0.00000     6.12674
      C    7    0.24092      1.99996     3.75913    0.00000     5.75908
      O    8   -0.25790      1.99999     6.25791    0.00000     8.25790
      C    9    0.15105      1.99988     3.84907    0.00000     5.84895
      C   10   -0.09474      1.99996     4.09478    0.00000     6.09474
      C   11   -0.09805      1.99996     4.09809    0.00000     6.09805
      C   12    0.03943      1.99993     3.96063    0.00000     5.96057
      N   13   -0.27580      1.99999     5.27580    0.00000     7.27580
      C   14    0.09703      1.99993     3.90304    0.00000     5.90297
      C   15   -0.08275      1.99997     4.08278    0.00000     6.08275
      C   16   -0.07814      1.99998     4.07816    0.00000     6.07814
      C   17    0.03482      1.99994     3.96524    0.00000     5.96518
      O   18   -0.23931      1.99999     6.23932    0.00000     8.23931
      C   19   -0.14679      1.99997     4.14682    0.00000     6.14679
      H   20    0.05217      0.00000     0.94783    0.00000     0.94783
      H   21    0.01892      0.00000     0.98108    0.00000     0.98108
      H   22    0.03121      0.00000     0.96879    0.00000     0.96879
      H   23    0.03285      0.00000     0.96715    0.00000     0.96715
      H   24    0.03923      0.00000     0.96077    0.00000     0.96077
      H   25    0.04448      0.00000     0.95552    0.00000     0.95552
      H   26    0.04733      0.00000     0.95267    0.00000     0.95267
      H   27    0.03928      0.00000     0.96072    0.00000     0.96072
      H   28    0.02852      0.00000     0.97148    0.00000     0.97148
      H   29    0.03900      0.00000     0.96100    0.00000     0.96100
      H   30    0.03855      0.00000     0.96145    0.00000     0.96145
      H   31    0.03745      0.00000     0.96255    0.00000     0.96255
      H   32    0.03702      0.00000     0.96298    0.00000     0.96298
      H   33    0.03796      0.00000     0.96204    0.00000     0.96204
      H   34    0.03400      0.00000     0.96600    0.00000     0.96600
      H   35    0.02853      0.00000     0.97147    0.00000     0.97147
      H   36    0.05632      0.00000     0.94368    0.00000     0.94368
      H   37    0.04485      0.00000     0.95515    0.00000     0.95515
      H   38    0.06243      0.00000     0.93757    0.00000     0.93757
 =======================================================================
   * Total *   -0.00000     37.99889   100.00111    0.00000   138.00000

                                 Natural Population      
 --------------------------------------------------------
   Core                      37.99889 ( 99.9971% of  38)
   Valence                  100.00111 (100.0011% of 100)
   Natural Minimal Basis    138.00000 (100.0000% of 138)
   Natural Rydberg Basis      0.00000 (  0.0000% of 138)
 --------------------------------------------------------

    Atom  No          Natural Electron Configuration
 ----------------------------------------------------------------------------
      C    1      [core]2S( 1.08)2p( 2.84)
      C    2      [core]2S( 1.08)2p( 2.99)
      C    3      [core]2S( 1.08)2p( 2.93)
      C    4      [core]2S( 1.08)2p( 3.02)
      C    5      [core]2S( 1.06)2p( 2.76)
      C    6      [core]2S( 1.09)2p( 3.04)
      C    7      [core]2S( 1.08)2p( 2.68)
      O    8      [core]2S( 1.73)2p( 4.52)
      C    9      [core]2S( 1.09)2p( 2.76)
      C   10      [core]2S( 1.10)2p( 2.99)
      C   11      [core]2S( 1.09)2p( 3.01)
      C   12      [core]2S( 1.07)2p( 2.89)
      N   13      [core]2S( 1.44)2p( 3.84)
      C   14      [core]2S( 1.09)2p( 2.82)
      C   15      [core]2S( 1.09)2p( 3.00)
      C   16      [core]2S( 1.08)2p( 3.00)
      C   17      [core]2S( 1.07)2p( 2.89)
      O   18      [core]2S( 1.81)2p( 4.43)
      C   19      [core]2S( 1.08)2p( 3.07)
      H   20            1S( 0.95)
      H   21            1S( 0.98)
      H   22            1S( 0.97)
      H   23            1S( 0.97)
      H   24            1S( 0.96)
      H   25            1S( 0.96)
      H   26            1S( 0.95)
      H   27            1S( 0.96)
      H   28            1S( 0.97)
      H   29            1S( 0.96)
      H   30            1S( 0.96)
      H   31            1S( 0.96)
      H   32            1S( 0.96)
      H   33            1S( 0.96)
      H   34            1S( 0.97)
      H   35            1S( 0.97)
      H   36            1S( 0.94)
      H   37            1S( 0.96)
      H   38            1S( 0.94)


 NATURAL BOND ORBITAL ANALYSIS:

                       Occupancies       Lewis Structure    Low   High
           Occ.    -------------------  -----------------   occ   occ
  Cycle   Thresh.   Lewis   Non-Lewis     CR  BD  3C  LP    (L)   (NL)   Dev
 =============================================================================
   1(1)    1.90   134.40369   3.59631     19  43   0   7     3      3    0.45
   2(2)    1.90   134.40369   3.59631     19  43   0   7     3      3    0.45
   3(1)    1.80   134.34115   3.65885     19  42   0   8     3      3    0.45
   4(2)    1.80   134.34115   3.65885     19  42   0   8     3      3    0.45
   5(1)    1.70   134.34115   3.65885     19  42   0   8     3      3    0.45
   6(2)    1.70   134.34115   3.65885     19  42   0   8     3      3    0.45
   7(1)    1.60   135.51629   2.48371     19  44   0   6     1      3    0.43
   8(2)    1.60   136.09800   1.90200     19  45   0   5     0      3    0.45
   9(3)    1.60   136.12778   1.87222     19  45   0   5     0      3    0.43
  10(4)    1.60   136.09800   1.90200     19  45   0   5     0      3    0.45
  11(5)    1.60   136.12778   1.87222     19  45   0   5     0      3    0.43
  12(1)    1.50   136.12778   1.87222     19  45   0   5     0      3    0.43
  13(2)    1.50   136.09800   1.90200     19  45   0   5     0      3    0.45
  14(3)    1.50   136.12778   1.87222     19  45   0   5     0      3    0.43
  15(1)    1.60   136.12778   1.87222     19  45   0   5     0      3    0.43
 -----------------------------------------------------------------------------

 Structure accepted: RESONANCE keyword permits strongly delocalized structure

 --------------------------------------------------------
   Core                     37.99888 ( 99.997% of  38)
   Valence Lewis            98.12890 ( 98.129% of 100)
  ==================       ============================
   Total Lewis             136.12778 ( 98.643% of 138)
  -----------------------------------------------------
   Valence non-Lewis         1.87222 (  1.357% of 138)
   Rydberg non-Lewis         0.00000 (  0.000% of 138)
  ==================       ============================
   Total non-Lewis           1.87222 (  1.357% of 138)
 --------------------------------------------------------


       (Occupancy)   Bond orbital/ Coefficients/ Hybrids
 ---------------------------------------------------------------------------------
     1. (1.98535) BD ( 1) C   1 - C   2  
                ( 50.00%)   0.7071* C   1 s( 33.74%)p 1.96( 66.26%)
                                            0.0000  0.5808 -0.5334 -0.5823  0.1978
                ( 50.00%)   0.7071* C   2 s( 34.46%)p 1.90( 65.54%)
                                            0.0001  0.5870  0.5194  0.5827 -0.2147
     2. (1.65617) BD ( 2) C   1 - C   2  
                ( 45.69%)   0.6760* C   1 s(  0.00%)p 1.00(100.00%)
                                           -0.0000  0.0013  0.1719  0.1732  0.9698
                ( 54.31%)   0.7369* C   2 s(  0.00%)p 1.00(100.00%)
                                            0.0000  0.0029  0.1846  0.1881  0.9647
     3. (1.98121) BD ( 1) C   1 - C   6  
                ( 49.44%)   0.7032* C   1 s( 34.60%)p 1.89( 65.40%)
                                            0.0001  0.5882  0.7834 -0.1682 -0.1096
                ( 50.56%)   0.7110* C   6 s( 35.58%)p 1.81( 64.42%)
                                            0.0000  0.5965 -0.7664  0.2167  0.0993
     4. (1.98742) BD ( 1) C   1 - C  19  
                ( 50.17%)   0.7083* C   1 s( 31.67%)p 2.16( 68.33%)
                                           -0.0000  0.5627 -0.2687  0.7763 -0.0917
                ( 49.83%)   0.7059* C  19 s( 25.57%)p 2.91( 74.43%)
                                            0.0001  0.5057  0.3000 -0.8042  0.0868
     5. (1.98974) BD ( 1) C   2 - C   3  
                ( 49.57%)   0.7041* C   2 s( 34.20%)p 1.92( 65.80%)
                                            0.0001  0.5848  0.2421 -0.7675  0.1016
                ( 50.43%)   0.7101* C   3 s( 34.33%)p 1.91( 65.67%)
                                            0.0000  0.5859 -0.2553  0.7625 -0.1011
     6. (1.98879) BD ( 1) C   2 - H  23  
                ( 51.67%)   0.7188* C   2 s( 31.34%)p 2.19( 68.66%)
                                           -0.0000  0.5598 -0.7985  0.1897  0.1141
                ( 48.33%)   0.6952* H  23 s(100.00%)
[...]
 Sum      195.0348      -43.0542     238.0890       -48.5379     243.5727

 Contributions to Isotropic shielding for atom   18 (  -355.7362 ppm):
                         Standard Origin              Atomic Origin
 NLMO      Total    Paramagnetic  Diamagnetic   Paramagnetic  Diamagnetic
    3      -0.4889       -0.4169      -0.0720        -1.1368       0.6479
    4       0.1331       -1.0143       1.1474        -0.8446       0.9777
    8       0.2222       -0.2856       0.5078        -0.8159       1.0381
   13       0.7428       -0.2840       1.0268        -0.7264       1.4691
   15     -10.9464      -11.0418       0.0953       -11.6878       0.7413
   16     -10.7429      -11.1169       0.3740       -11.4875       0.7447
   17    -117.4891     -128.4684      10.9793      -126.9576       9.4685
   18     -28.2904      -52.3069      24.0165       -53.1953      24.9049
   20      -1.2613       -1.4347       0.1735        -1.2602      -0.0011
   23      -0.2301       -0.3350       0.1050        -1.1319       0.9018
   24      -0.0468       -0.2698       0.2230        -1.0927       1.0460
   43      -0.4165       -1.8142       1.3977        -1.3582       0.9417
   45      -0.2830       -1.6209       1.3379        -1.2556       0.9726
   63     271.9246       -0.0059     271.9305        -0.0059     271.9305
   68     -35.5772      -70.7426      35.1654       -70.6370      35.0597
   69    -422.9573     -459.6097      36.6524      -462.6130      39.6558
 Sum     -355.7072     -740.7676     385.0604      -746.2064     390.4992

 Contributions to Isotropic shielding for atom   19 (   218.2982 ppm):
                         Standard Origin              Atomic Origin
 NLMO      Total    Paramagnetic  Diamagnetic   Paramagnetic  Diamagnetic
    1      -1.9723       -1.3505      -0.6218        -2.4534       0.4811
    2      -0.9176       -0.5801      -0.3374        -2.5688       1.6512
    3      -1.1283       -1.5264       0.3981        -1.4260       0.2976
    4       4.0188      -11.7426      15.7614        -2.9287       6.9475
    6      -0.6080       -1.3578       0.7498        -1.6440       1.0360
    8       0.8021       -0.2166       1.0187        -0.3809       1.1830
   15      -0.4213        0.1252      -0.5465        -1.2699       0.8486
   17      -0.4128       -0.2731      -0.1397        -1.1519       0.7392
   18       0.2840        0.2517       0.0323        -1.1995       1.4835
   43       7.1679       -4.0109      11.1788        -4.2419      11.4098
   44       4.0679        5.2985      -1.2306        -7.1206      11.1885
   45       6.8465       -4.8332      11.6796        -4.6221      11.4686
   64     200.0791       -0.0040     200.0831         0.0036     200.0755
 Sum      217.8060      -20.2197     238.0257       -31.0040     248.8100

 Contributions to Isotropic shielding for atom   20 (    30.9381 ppm):
                         Standard Origin              Atomic Origin
 NLMO      Total    Paramagnetic  Diamagnetic   Paramagnetic  Diamagnetic
   13       0.1164       -0.3640       0.4804        -0.9081       1.0245
   16       1.7119        1.8326      -0.1207         0.7262       0.9857
   17      -0.6283       -0.6454       0.0171        -1.4420       0.8137
   18       0.2247       -0.1517       0.3764        -1.3159       1.5406
   20       1.2417        1.1725       0.0692         0.4120       0.8296
   22       0.1060       -0.3102       0.4162        -0.8979       1.0039
   23       1.2065        1.5995      -0.3930         0.1416       1.0649
   24      25.7741       -0.1543      25.9284         0.3486      25.4255
   28       0.2094       -0.8088       1.0182        -0.8253       1.0346
   29      -0.2487       -1.5349       1.2862        -0.9059       0.6573
 Sum       29.7136        0.6353      29.0784        -4.6667      34.3803

 Contributions to Isotropic shielding for atom   21 (    31.1633 ppm):
                         Standard Origin              Atomic Origin
 NLMO      Total    Paramagnetic  Diamagnetic   Paramagnetic  Diamagnetic
   13      -0.0925       -0.5036       0.4112        -1.3693       1.2769
   19       0.9143        0.5056       0.4087        -0.4833       1.3976
   21       0.4546        1.2030      -0.7484        -0.7507       1.2054
   22      26.4074        0.2611      26.1464         0.8215      25.5859
   24       0.1152       -0.2143       0.3295        -0.9834       1.0986
   27      -0.1311       -1.3901       1.2591        -1.2942       1.1632
   65       0.7435        0.1118       0.6317         1.0413      -0.2978
 Sum       28.4115       -0.0266      28.4381        -3.0182      31.4298

 Contributions to Isotropic shielding for atom   22 (    30.6128 ppm):
                         Standard Origin              Atomic Origin
 NLMO      Total    Paramagnetic  Diamagnetic   Paramagnetic  Diamagnetic
   17      -0.1391       -0.3389       0.1999        -1.0208       0.8817
   18       0.0340       -0.3412       0.3752        -1.3672       1.4012
   23       1.0863        0.1450       0.9413        -0.0058       1.0921
   24       0.1369        0.1822      -0.0453        -0.8798       1.0167
   31       0.4990        1.6034      -1.1044        -0.9383       1.4373
   33       0.7911        0.7325       0.0586        -0.2526       1.0437
   34      26.1260       -0.0447      26.1707         0.6553      25.4708
   37      -0.1040       -0.6430       0.5390        -1.2886       1.1846
 Sum       28.4303        1.2954      27.1350        -5.0977      33.5280

 Contributions to Isotropic shielding for atom   23 (    25.8659 ppm):
                         Standard Origin              Atomic Origin
 NLMO      Total    Paramagnetic  Diamagnetic   Paramagnetic  Diamagnetic
    1      -1.5209       -2.5903       1.0695        -2.1040       0.5832
    2       0.6590        1.5319      -0.8729        -2.6919       3.3510
    4      -0.6763        0.6476      -1.3239        -1.7491       1.0728
    5      -1.9696       -1.4096      -0.5600        -2.6772       0.7076
    6      27.0133        0.9637      26.0496         1.5550      25.4583
    8       1.0503        0.2757       0.7746         0.1778       0.8724
    9      -0.0902       -0.0367      -0.0535        -1.1946       1.1044
   13       0.6222        0.8061      -0.1839        -0.6352       1.2574
   44      -0.1095       -1.5127       1.4032        -0.9004       0.7909
 Sum       24.9783       -1.3243      26.3027       -10.2197      35.1980

 Contributions to Isotropic shielding for atom   24 (    25.3097 ppm):
                         Standard Origin              Atomic Origin
 NLMO      Total    Paramagnetic  Diamagnetic   Paramagnetic  Diamagnetic
    2       1.0818        0.6064       0.4754         0.0171       1.0647
    5      -2.0755       -1.8385      -0.2370        -2.8175       0.7419
    6      -0.0964       -0.1151       0.0187        -1.2251       1.1287
    7      -1.8063       -2.7218       0.9155        -2.5281       0.7218
    8       0.6919        1.1544      -0.4626        -2.1332       2.8251
    9      26.8645        1.1207      25.7438         1.5801      25.2843
   11      -0.1108        0.5778      -0.6886        -1.2167       1.1060
   13       0.4591        0.7169      -0.2579        -0.9201       1.3791
 Sum       25.0081       -0.4992      25.5073        -9.2434      34.2516

 Contributions to Isotropic shielding for atom   25 (    25.7312 ppm):
                         Standard Origin              Atomic Origin
 NLMO      Total    Paramagnetic  Diamagnetic   Paramagnetic  Diamagnetic
    2       1.2004       -0.4810       1.6814        -0.0323       1.2327
    7      -1.7557       -1.0316      -0.7241        -2.4314       0.6757
    8       0.3919       -0.2222       0.6141        -3.0042       3.3961
    9      -0.0537       -1.0730       1.0192        -1.1497       1.0960
   10      -0.8872       -2.4792       1.5920        -1.4440       0.5568
   11      26.5095        1.0985      25.4110         1.2975      25.2120
   14      -0.4339        0.1996      -0.6334        -2.0012       1.5674
   65      -0.2354       -0.3872       0.1518         0.7688      -1.0041
 Sum       24.7359       -4.3762      29.1121        -7.9966      32.7325

 Contributions to Isotropic shielding for atom   26 (    31.6985 ppm):
                         Standard Origin              Atomic Origin
 NLMO      Total    Paramagnetic  Diamagnetic   Paramagnetic  Diamagnetic
   19      -0.1018        0.2852      -0.3870        -1.9654       1.8635
   21       1.6927       -0.4328       2.1254         0.8926       0.8001
   25       1.1191        1.3410      -0.2219         0.1808       0.9384
   26      25.9576        0.1663      25.7912         0.4568      25.5007
   27       1.9573        2.0500      -0.0927         0.1263       1.8310
   65      -0.4384       -0.1773      -0.2610         0.6244      -1.0628
 Sum       30.1865        3.2325      26.9541         0.3156      29.8709

 Contributions to Isotropic shielding for atom   27 (    31.7613 ppm):
                         Standard Origin              Atomic Origin
 NLMO      Total    Paramagnetic  Diamagnetic   Paramagnetic  Diamagnetic
   21       1.3997        0.3220       1.0777         0.4842       0.9155
   22      -0.2469        0.3086      -0.5554        -1.4192       1.1724
   25       0.8768        2.1413      -1.2645        -0.1766       1.0533
   26       2.0250        1.7206       0.3044         0.1015       1.9235
   27      26.2547       -0.1602      26.4149         0.4808      25.7739
   29       0.2209       -0.4141       0.6351        -0.7803       1.0013
 Sum       30.5303        3.9182      26.6121        -1.3096      31.8399

 Contributions to Isotropic shielding for atom   28 (    31.6576 ppm):
                         Standard Origin              Atomic Origin
 NLMO      Total    Paramagnetic  Diamagnetic   Paramagnetic  Diamagnetic
   20      -0.1207        0.3061      -0.4267        -1.0336       0.9129
   23      -0.0887        0.3276      -0.4163        -1.0338       0.9451
   25       1.2185       -0.2739       1.4924         0.3388       0.8796
   28       1.2836        0.0629       1.2207        -0.0830       1.3666
   29      26.4236        0.2937      26.1299         0.6621      25.7616
   30       1.4189        2.3319      -0.9129        -0.5068       1.9257
 Sum       30.1353        3.0481      27.0872        -1.6562      31.7915

 Contributions to Isotropic shielding for atom   29 (    31.7395 ppm):
                         Standard Origin              Atomic Origin
 NLMO      Total    Paramagnetic  Diamagnetic   Paramagnetic  Diamagnetic
   26       0.1976        0.5131      -0.3155        -0.8259       1.0235
   28       0.6212        1.2351      -0.6139        -0.4800       1.1012
   29       1.7153        2.1667      -0.4514        -0.1414       1.8567
   30      26.3623        0.0479      26.3144         0.8187      25.5436
   32      -0.3977        0.4453      -0.8430        -1.5057       1.1080
   41      -0.1269       -1.2277       1.1008        -0.9543       0.8274
 Sum       28.3718        3.1802      25.1915        -3.0885      31.4603

 Contributions to Isotropic shielding for atom   30 (    33.0940 ppm):
                         Standard Origin              Atomic Origin
 NLMO      Total    Paramagnetic  Diamagnetic   Paramagnetic  Diamagnetic
   13      -0.2534       -0.6059       0.3525        -1.4736       1.2202
   23      -0.1568       -0.6596       0.5028        -1.1324       0.9756
   33       1.6744       -0.4703       2.1447         1.1008       0.5736
   36      26.1303        0.3928      25.7374         0.3840      25.7463
   37       2.0584        1.1894       0.8690         0.2808       1.7776
   39       0.1262       -1.1958       1.3220        -0.9711       1.0973
 Sum       29.5791       -1.3494      30.9284        -1.8115      31.3906

 Contributions to Isotropic shielding for atom   31 (    32.2709 ppm):
                         Standard Origin              Atomic Origin
 NLMO      Total    Paramagnetic  Diamagnetic   Paramagnetic  Diamagnetic
   18      -0.1832       -0.2102       0.0270        -1.0298       0.8466
   33       1.1398        0.8027       0.3371         0.3230       0.8168
   34      -0.1483       -0.3125       0.1643        -1.3145       1.1662
   35       0.6270        2.0153      -1.3883        -0.2595       0.8865
   36       2.1726        0.6230       1.5496         0.3161       1.8564
   37      26.2207       -0.1991      26.4199         0.4346      25.7862
   40       0.0779       -0.6876       0.7655        -0.9579       1.0359
 Sum       29.9066        2.0315      27.8751        -2.4880      32.3946

 Contributions to Isotropic shielding for atom   32 (    32.1170 ppm):
                         Standard Origin              Atomic Origin
 NLMO      Total    Paramagnetic  Diamagnetic   Paramagnetic  Diamagnetic
   31      -0.2494       -0.1317      -0.1177        -1.0004       0.7510
   32       0.3516       -0.9807       1.3323        -0.0743       0.4259
   35       1.6421       -1.3953       3.0374         0.8702       0.7720
   36       0.0018       -0.0827       0.0844        -1.0451       1.0469
   38       1.1347        0.6999       0.4348         0.4386       0.6961
   39      26.1833        0.3475      25.8358         0.3651      25.8182
   40       1.9444        1.6782       0.2662         0.1357       1.8087
 Sum       31.0085        0.1352      30.8733        -0.3102      31.3187

 Contributions to Isotropic shielding for atom   33 (    32.4077 ppm):
                         Standard Origin              Atomic Origin
 NLMO      Total    Paramagnetic  Diamagnetic   Paramagnetic  Diamagnetic
   31      -0.1721       -0.0512      -0.1209        -1.0783       0.9062
   35       1.3224        0.2975       1.0249         0.5729       0.7495
   37       0.0459        0.5249      -0.4789        -1.0808       1.1267
   38       0.5278        2.1621      -1.6343        -0.1702       0.6981
   39       2.1832        1.0336       1.1496         0.4197       1.7635
   40      26.2889       -0.0397      26.3286         0.4905      25.7984
   42       0.1694       -0.5149       0.6843        -0.9164       1.0858
 Sum       30.3656        3.4122      26.9534        -1.7626      32.1282

 Contributions to Isotropic shielding for atom   34 (    31.8300 ppm):
                         Standard Origin              Atomic Origin
 NLMO      Total    Paramagnetic  Diamagnetic   Paramagnetic  Diamagnetic
   28      -0.3748        0.6684      -1.0432        -1.5236       1.1488
   32       0.8975       -0.2621       1.1596         0.1298       0.7677
   33      -0.1262        0.2047      -0.3309        -1.0323       0.9061
   39       0.0892        0.3616      -0.2724        -0.9485       1.0377
   41      26.4766        0.2730      26.2035         0.8464      25.6301
   42       1.5465        2.6601      -1.1136        -0.2698       1.8163
 Sum       28.5088        3.9057      24.6031        -2.7979      31.3067

 Contributions to Isotropic shielding for atom   35 (    31.3360 ppm):
                         Standard Origin              Atomic Origin
 NLMO      Total    Paramagnetic  Diamagnetic   Paramagnetic  Diamagnetic
   32       1.1462        0.2901       0.8561        -0.1542       1.3005
   33      -0.1640        0.3582      -0.5221        -1.0933       0.9294
   41       1.3683        2.4851      -1.1167        -0.5407       1.9090
   42      26.4609        0.1259      26.3350         0.7619      25.6989
 Sum       28.8115        3.2592      25.5523        -1.0263      29.8378

 Contributions to Isotropic shielding for atom   36 (    31.2739 ppm):
                         Standard Origin              Atomic Origin
 NLMO      Total    Paramagnetic  Diamagnetic   Paramagnetic  Diamagnetic
    2      -0.7629       -0.3652      -0.3977        -1.6194       0.8564
    4       1.8326       -0.7902       2.6228         0.9744       0.8582
    8       0.5268       -0.1139       0.6407        -0.5747       1.1014
   15      -0.3402        0.2988      -0.6390        -1.2472       0.9070
   18       0.1112        0.3015      -0.1903        -1.2397       1.3509
   43      25.7872        0.2316      25.5556         0.3562      25.4310
   44       1.8077        2.5891      -0.7814        -0.0941       1.9018
   45       2.1945        0.4861       1.7084         0.3544       1.8401
 Sum       31.1568        2.6377      28.5191        -3.0901      34.2469

 Contributions to Isotropic shielding for atom   37 (    31.0043 ppm):
                         Standard Origin              Atomic Origin
 NLMO      Total    Paramagnetic  Diamagnetic   Paramagnetic  Diamagnetic
    1      -1.0143        0.3202      -1.3345        -1.9151       0.9007
    2      -0.7788        0.1826      -0.9613        -2.3793       1.6005
    4       1.0766        0.6495       0.4271         0.3118       0.7648
    6      -0.0233       -1.1562       1.1329        -0.9622       0.9388
   18       0.0867        0.1064      -0.0197        -0.9314       1.0180
   43       2.0228        2.3275      -0.3048         0.0428       1.9800
   44      26.2530       -0.1418      26.3948         0.5227      25.7303
   45       2.1266        2.2905      -0.1639         0.1619       1.9647
 Sum       29.7491        4.5787      25.1704        -5.1487      34.8978

 Contributions to Isotropic shielding for atom   38 (    30.7186 ppm):
                         Standard Origin              Atomic Origin
 NLMO      Total    Paramagnetic  Diamagnetic   Paramagnetic  Diamagnetic
    2      -0.8596       -0.4629      -0.3966        -1.8244       0.9648
    4       1.8971       -0.7556       2.6528         1.0218       0.8753
    8       0.5091       -0.1768       0.6859        -0.5581       1.0672
   15      -0.3238        0.1698      -0.4936        -1.2123       0.8885
   18       0.1683        0.0952       0.0731        -1.1191       1.2874
   43       2.1974        0.5644       1.6330         0.4024       1.7951
   44       1.7693        2.5631      -0.7938        -0.0871       1.8563
   45      25.6425        0.2596      25.3830         0.3637      25.2789
 Sum       31.0004        2.2568      28.7436        -3.0130      34.0134
 
 1\1\GINC-GNOSIE-MM\SP\RHF\STO-3G\C16H19N1O2\MBENIDD\18-May-2026\0\\# n
 mr=giao hf/sto-3g pop=nbo\\Title Card Required\\0,1\C,0,0.,0.,0.\C,0,1
 .4072,0.,0.\C,0,2.127,1.1946,0.\C,0,1.4513,2.4096,-0.01\C,0,0.0575,2.4
 286,-0.0288\C,0,-0.6758,1.2363,0.0016\C,0,-2.149,1.3509,0.093\O,0,-0.5
 178,3.6707,-0.0276\C,0,-1.7648,3.691,-0.7306\C,0,-2.7717,2.7062,-0.153
 5\C,0,-2.2777,5.1369,-0.7101\C,0,-3.7605,5.2237,-0.3663\N,0,-4.1182,4.
 5716,0.894\C,0,-3.5101,3.2308,1.0891\C,0,-2.6769,3.3192,2.3759\C,0,-2.
 5494,4.7974,2.6721\C,0,-3.8151,5.3787,2.0819\O,0,-2.8503,0.3826,0.3784
 \C,0,-0.7107,-1.3259,0.0185\H,0,-3.5263,2.5347,-0.9366\H,0,-1.5567,3.4
 239,-1.7776\H,0,-4.3343,2.5331,1.2914\H,0,1.9556,-0.9408,0.0089\H,0,3.
 214,1.1755,0.0092\H,0,2.0086,3.3427,-0.0088\H,0,-1.692,5.7561,-0.0207\
 H,0,-2.1214,5.5811,-1.7014\H,0,-4.3413,4.7561,-1.1721\H,0,-4.0825,6.27
 24,-0.3625\H,0,-1.698,2.838,2.3267\H,0,-3.23,2.8408,3.1947\H,0,-1.6609
 ,5.2088,2.1828\H,0,-2.4625,4.995,3.7448\H,0,-3.7224,6.4517,1.8825\H,0,
 -4.6398,5.2577,2.795\H,0,-1.4414,-1.3841,-0.7943\H,0,-0.0109,-2.1561,-
 0.1293\H,0,-1.2036,-1.4823,0.983\\Version=EM64L-G16RevB.01\State=1-A\H
 F=-811.0473364\RMSD=7.719e-09\Dipole=0.5602042,0.3460707,-0.3378746\Qu
 adrupole=-3.4010435,0.9314073,2.4696362,-3.0525574,0.6315206,0.2189159
 \PG=C01 [X(C16H19N1O2)]\\@


 You never know when you're making a memory.
                        -- Rickie Lee Jones
 Job cpu time:       0 days  0 hours  3 minutes 46.2 seconds.
 Elapsed time:       0 days  0 hours  2 minutes  2.3 seconds.
 File lengths (MBytes):  RWF=     14 Int=      0 D2E=      0 Chk=      2 Scr=      1
 Normal termination of Gaussian 16 at Mon May 18 11:57:43 2026.
