 Entering Gaussian System, Link 0=g16
 Input=4_isoelaeocarpine_c4.gjf
 Output=4_isoelaeocarpine_c4.log
 Initial command:
 /opt/gaussian/g16/l1.exe "/home/mbenidd/Bureau/Elaeocarpines/HF_NMR/4/4_isoelaeocarpine_c4/Gau-14033.inp" -scrdir="/home/mbenidd/Bureau/Elaeocarpines/HF_NMR/4/4_isoelaeocarpine_c4/"
 Entering Link 1 = /opt/gaussian/g16/l1.exe PID=     14035.
  
 Copyright (c) 1988-2017, Gaussian, Inc.  All Rights Reserved.
  
 This is part of the Gaussian(R) 16 program.  It is based on
 the Gaussian(R) 09 system (copyright 2009, Gaussian, Inc.),
 the Gaussian(R) 03 system (copyright 2003, Gaussian, Inc.),
 the Gaussian(R) 98 system (copyright 1998, Gaussian, Inc.),
 the Gaussian(R) 94 system (copyright 1995, Gaussian, Inc.),
 the Gaussian 92(TM) system (copyright 1992, Gaussian, Inc.),
 the Gaussian 90(TM) system (copyright 1990, Gaussian, Inc.),
 the Gaussian 88(TM) system (copyright 1988, Gaussian, Inc.),
 the Gaussian 86(TM) system (copyright 1986, Carnegie Mellon
 University), and the Gaussian 82(TM) system (copyright 1983,
 Carnegie Mellon University). Gaussian is a federally registered
 trademark of Gaussian, Inc.
  
 This software contains proprietary and confidential information,
 including trade secrets, belonging to Gaussian, Inc.
  
 This software is provided under written license and may be
 used, copied, transmitted, or stored only in accord with that
 written license.
  
 The following legend is applicable only to US Government
 contracts under FAR:
  
                    RESTRICTED RIGHTS LEGEND
  
 Use, reproduction and disclosure by the US Government is
 subject to restrictions as set forth in subparagraphs (a)
 and (c) of the Commercial Computer Software - Restricted
 Rights clause in FAR 52.227-19.
  
 Gaussian, Inc.
 340 Quinnipiac St., Bldg. 40, Wallingford CT 06492
  
  
 ---------------------------------------------------------------
 Warning -- This program may not be used in any manner that
 competes with the business of Gaussian, Inc. or will provide
 assistance to any competitor of Gaussian, Inc.  The licensee
 of this program is prohibited from giving any competitor of
 Gaussian, Inc. access to this program.  By using this program,
 the user acknowledges that Gaussian, Inc. is engaged in the
 business of creating and licensing software in the field of
 computational chemistry and represents and warrants to the
 licensee that it is not a competitor of Gaussian, Inc. and that
 it will not use this program in any manner prohibited above.
 ---------------------------------------------------------------
  

 Cite this work as:
 Gaussian 16, Revision B.01,
 M. J. Frisch, G. W. Trucks, H. B. Schlegel, G. E. Scuseria, 
 M. A. Robb, J. R. Cheeseman, G. Scalmani, V. Barone, 
 G. A. Petersson, H. Nakatsuji, X. Li, M. Caricato, A. V. Marenich, 
 J. Bloino, B. G. Janesko, R. Gomperts, B. Mennucci, H. P. Hratchian, 
 J. V. Ortiz, A. F. Izmaylov, J. L. Sonnenberg, D. Williams-Young, 
 F. Ding, F. Lipparini, F. Egidi, J. Goings, B. Peng, A. Petrone, 
 T. Henderson, D. Ranasinghe, V. G. Zakrzewski, J. Gao, N. Rega, 
 G. Zheng, W. Liang, M. Hada, M. Ehara, K. Toyota, R. Fukuda, 
 J. Hasegawa, M. Ishida, T. Nakajima, Y. Honda, O. Kitao, H. Nakai, 
 T. Vreven, K. Throssell, J. A. Montgomery, Jr., J. E. Peralta, 
 F. Ogliaro, M. J. Bearpark, J. J. Heyd, E. N. Brothers, K. N. Kudin, 
 V. N. Staroverov, T. A. Keith, R. Kobayashi, J. Normand, 
 K. Raghavachari, A. P. Rendell, J. C. Burant, S. S. Iyengar, 
 J. Tomasi, M. Cossi, J. M. Millam, M. Klene, C. Adamo, R. Cammi, 
 J. W. Ochterski, R. L. Martin, K. Morokuma, O. Farkas, 
 J. B. Foresman, and D. J. Fox, Gaussian, Inc., Wallingford CT, 2016.
 
 ******************************************
 Gaussian 16:  EM64L-G16RevB.01 20-Dec-2017
                18-May-2026 
 ******************************************
 %nprocshared=4
 Will use up to    4 processors via shared memory.
 ----------------------------
 # nmr=giao hf/sto-3g pop=nbo
 ----------------------------
 1/38=1,172=1/1;
 2/12=2,17=6,18=5,40=1/2;
 3/6=3,11=9,25=1,30=1/1,2,3,8;
 4//1;
 5/5=2,38=5/2;
 8/6=1,10=90,11=11/1;
 10/13=100,45=16/2;
 6/7=2,8=2,9=2,10=2,28=1,40=1,64=1/1,7;
 99/9=1/99;
 -------------------
 Title Card Required
 -------------------
 Symbolic Z-matrix:
 Charge =  0 Multiplicity = 1
 C                     0.        0.        0. 
 C                     1.4075    0.        0. 
 C                     2.1282    1.194     0. 
 C                     1.4537    2.4096    0.0125 
 C                     0.0596    2.4307    0.0302 
 C                    -0.6766    1.2365   -0.0037 
 C                    -2.154     1.3481   -0.0986 
 O                    -0.5086    3.679     0.0538 
 C                    -1.7762    3.6676    0.7194 
 C                    -2.7475    2.7338    0.0074 
 C                    -2.3215    5.11      0.7282 
 C                    -3.8225    5.1861    1.0424 
 N                    -4.2349    3.9212    1.6116 
 C                    -4.1372    2.8045    0.6552 
 C                    -4.6275    1.6843    1.5619 
 C                    -5.7523    2.344     2.3727 
 C                    -5.5747    3.8495    2.1692 
 O                    -2.8514    0.3683   -0.3493 
 C                    -0.7089   -1.327    -0.0149 
 H                    -2.8368    3.082    -1.0333 
 H                    -1.6145    3.349     1.7611 
 H                    -4.8725    2.9396   -0.153 
 H                     1.9558   -0.9409   -0.0073 
 H                     3.2152    1.1742   -0.007 
 H                     2.0119    3.3422    0.0188 
 H                    -2.1254    5.5961   -0.2361 
 H                    -1.7532    5.6871    1.4692 
 H                    -4.39      5.4174    0.1324 
 H                    -3.9959    6.0081    1.7466 
 H                    -3.8371    1.3379    2.2394 
 H                    -5.0053    0.8225    1.0034 
 H                    -5.6685    2.0661    3.429 
 H                    -6.7357    2.0216    2.0136 
 H                    -5.6606    4.3953    3.1136 
 H                    -6.3296    4.2311    1.4711 
 H                    -1.4322   -1.3877    0.8044 
 H                    -0.0068   -2.1565    0.1252 
 H                    -1.2095   -1.4829   -0.9754 
 
                          Input orientation:                          
 ---------------------------------------------------------------------
 Center     Atomic      Atomic             Coordinates (Angstroms)
 Number     Number       Type             X           Y           Z
 ---------------------------------------------------------------------
      1          6           0        0.000000    0.000000    0.000000
      2          6           0        1.407500    0.000000    0.000000
      3          6           0        2.128200    1.194000    0.000000
      4          6           0        1.453700    2.409600    0.012500
      5          6           0        0.059600    2.430700    0.030200
      6          6           0       -0.676600    1.236500   -0.003700
      7          6           0       -2.154000    1.348100   -0.098600
      8          8           0       -0.508600    3.679000    0.053800
      9          6           0       -1.776200    3.667600    0.719400
     10          6           0       -2.747500    2.733800    0.007400
     11          6           0       -2.321500    5.110000    0.728200
     12          6           0       -3.822500    5.186100    1.042400
     13          7           0       -4.234900    3.921200    1.611600
     14          6           0       -4.137200    2.804500    0.655200
     15          6           0       -4.627500    1.684300    1.561900
     16          6           0       -5.752300    2.344000    2.372700
     17          6           0       -5.574700    3.849500    2.169200
     18          8           0       -2.851400    0.368300   -0.349300
     19          6           0       -0.708900   -1.327000   -0.014900
     20          1           0       -2.836800    3.082000   -1.033300
     21          1           0       -1.614500    3.349000    1.761100
     22          1           0       -4.872500    2.939600   -0.153000
     23          1           0        1.955800   -0.940900   -0.007300
     24          1           0        3.215200    1.174200   -0.007000
     25          1           0        2.011900    3.342200    0.018800
     26          1           0       -2.125400    5.596100   -0.236100
     27          1           0       -1.753200    5.687100    1.469200
     28          1           0       -4.390000    5.417400    0.132400
     29          1           0       -3.995900    6.008100    1.746600
     30          1           0       -3.837100    1.337900    2.239400
     31          1           0       -5.005300    0.822500    1.003400
     32          1           0       -5.668500    2.066100    3.429000
     33          1           0       -6.735700    2.021600    2.013600
     34          1           0       -5.660600    4.395300    3.113600
     35          1           0       -6.329600    4.231100    1.471100
     36          1           0       -1.432200   -1.387700    0.804400
     37          1           0       -0.006800   -2.156500    0.125200
     38          1           0       -1.209500   -1.482900   -0.975400
 ---------------------------------------------------------------------
                    Distance matrix (angstroms):
                    1          2          3          4          5
     1  C    0.000000
     2  C    1.407500   0.000000
     3  C    2.440260   1.394649   0.000000
     4  C    2.814173   2.410075   1.390248   0.000000
     5  C    2.431618   2.779577   2.410279   1.394372   0.000000
     6  C    1.409515   2.423307   2.805124   2.431996   1.403301
     7  C    2.542993   3.809380   4.286106   3.762263   2.467516
     8  O    3.714379   4.148418   3.623649   2.337457   1.371737
     9  C    4.138081   4.909661   4.677667   3.537588   2.318422
    10  C    3.875884   4.973705   5.113070   4.213694   2.823508
    11  C    5.659659   6.367717   5.972032   4.696437   3.651779
    12  C    6.526388   7.438759   7.241153   6.050449   4.866978
    13  N    5.992282   7.057602   7.108018   6.099363   4.813018
    14  C    5.040926   6.248056   6.502172   5.641558   4.259517
    15  C    5.166251   6.457370   6.951216   6.317254   4.987196
    16  C    6.649285   7.898530   8.309903   7.582960   6.266818
    17  C    7.113463   8.262881   8.431594   7.491533   6.191418
    18  O    2.896228   4.289042   5.059665   4.778252   3.587678
    19  C    1.504556   2.498059   3.795366   4.317380   3.835744
    20  H    4.314379   5.346075   5.411421   4.467014   3.153467
    21  H    4.113865   4.842495   4.664043   3.654302   2.577188
    22  H    5.692619   6.935637   7.216670   6.350519   4.961668
    23  H    2.170369   1.089027   2.141862   3.387971   3.868419
    24  H    3.422909   2.155591   1.087203   2.151622   3.396761
    25  H    3.901076   3.396462   2.151428   1.086908   2.154632
    26  H    5.990777   6.622195   6.125956   4.798494   3.855502
    27  H    6.129875   6.670208   6.116516   4.811256   3.995135
    28  H    6.974084   7.935790   7.767984   6.573436   5.360015
    29  H    7.423954   8.267080   7.983155   6.756807   5.673702
    30  H    4.639852   5.857535   6.373415   5.839537   4.610753
    31  H    5.170720   6.542730   7.213296   6.724541   5.402466
    32  H    6.939647   8.129981   8.561958   7.906718   6.670525
    33  H    7.315129   8.628624   9.127334   8.439266   7.090652
    34  H    7.813806   8.886574   8.978209   8.010811   6.788792
    35  H    7.754365   8.940305   9.106179   8.125585   6.792607
    36  H    2.150341   3.261390   4.470870   4.834771   4.171934
    37  H    2.160142   2.581940   3.974890   4.795313   4.588664
    38  H    2.147857   3.162133   4.388330   4.818728   4.235341
                    6          7          8          9         10
     6  C    0.000000
     7  C    1.484645   0.000000
     8  O    2.448946   2.857212   0.000000
     9  C    2.764460   2.488360   1.431769   0.000000
    10  C    2.555515   1.511173   2.430685   1.523926   0.000000
    11  C    4.271461   3.855327   2.406072   1.542059   2.519396
    12  C    5.156583   4.337743   3.772349   2.568563   2.870649
    13  N    4.741129   3.725020   4.046074   2.627839   2.489123
    14  C    3.855973   2.573402   3.780631   2.514634   1.534897
    15  C    4.273317   2.998082   4.818561   3.573961   2.655621
    16  C    5.712842   4.477377   5.886927   4.504963   3.843880
    17  C    5.961598   4.806361   5.492664   4.069842   3.729776
    18  O    2.367058   1.228505   4.075774   3.630917   2.394498
    19  C    2.563728   3.041625   5.010477   5.159879   4.543840
    20  H    3.021988   2.084776   2.637937   2.130671   1.101033
    21  H    2.908063   2.784447   2.060774   1.101268   2.176608
    22  H    4.530830   3.150567   4.430926   3.298202   2.140959
    23  H    3.416228   4.705137   5.236456   5.974461   5.968640
    24  H    3.892300   5.372796   4.488252   5.626613   6.163307
    25  H    3.415042   4.620058   2.543144   3.866061   4.798142
    26  H    4.599907   4.250321   2.524551   2.180375   2.939228
    27  H    4.810025   4.630935   2.754061   2.154323   3.442016
    28  H    5.593549   4.648899   4.253643   3.199737   3.148832
    29  H    6.070376   5.339753   4.522338   3.385284   3.912079
    30  H    3.876924   2.880829   4.619146   3.461966   2.849138
    31  H    4.463551   3.101705   5.411252   4.313043   3.121337
    32  H    6.114796   5.031023   6.373224   5.005670   4.548122
    33  H    6.434172   5.089889   6.735322   5.383392   4.520819
    34  H    6.673517   5.648000   6.034780   4.620639   4.571128
    35  H    6.564988   5.311429   6.016444   4.649305   4.149189
    36  H    2.847873   2.970018   5.204602   5.067704   4.399089
    37  H    3.460881   4.116160   5.857471   6.115880   5.607169
    38  H    2.936549   3.110534   5.309965   5.451710   4.594769
                   11         12         13         14         15
    11  C    0.000000
    12  C    1.535420   0.000000
    13  N    2.419657   1.447078   0.000000
    14  C    2.935545   2.433306   1.473521   0.000000
    15  C    4.212851   3.630497   2.271635   1.522283   0.000000
    16  C    4.703778   3.683932   2.317183   2.402169   1.535505
    17  C    3.774739   2.475153   1.452970   2.334658   2.440101
    18  O    4.891372   5.107941   4.287458   2.932128   2.922169
    19  C    6.677398   7.296085   6.528536   5.410320   5.187451
    20  H    2.735178   3.115666   3.107159   2.149204   3.448947
    21  H    2.160521   2.960866   2.686310   2.807759   3.448054
    22  H    3.463344   2.752861   2.117519   1.100957   2.139319
    23  H    7.446452   8.487093   8.036518   7.182728   7.259057
    24  H    6.832722   8.168586   8.103695   7.560038   8.014337
    25  H    4.733574   6.203866   6.472616   6.205285   7.015085
    26  H    1.097553   2.163980   3.266386   3.554544   4.979507
    27  H    1.097766   2.171442   3.049183   3.828242   4.928753
    28  H    2.174434   1.097113   2.109669   2.676654   4.004486
    29  H    2.155768   1.096198   2.104875   3.387355   4.373589
    30  H    4.336993   4.030095   2.688088   2.179602   1.097147
    31  H    5.065686   4.521232   3.250441   2.191612   1.094237
    32  H    5.268971   4.340274   2.966403   3.253318   2.171524
    33  H    5.538558   4.409538   3.166084   3.034862   2.182272
    34  H    4.165395   2.879904   2.124475   3.300776   3.290074
    35  H    4.170040   2.716866   2.122156   2.739981   3.064568
    36  H    6.558717   6.998930   6.057319   4.991375   4.496769
    37  H    7.650063   8.325539   7.551467   6.477085   6.177922
    38  H    6.899647   7.441428   6.711923   5.441698   5.305824
                   16         17         18         19         20
    16  C    0.000000
    17  C    1.529537   0.000000
    18  O    4.441610   5.087038   0.000000
    19  C    6.679278   7.432527   2.752485   0.000000
    20  H    4.543745   4.282658   2.798613   5.000438   0.000000
    21  H    4.301798   4.012509   3.855941   5.083234   3.061695
    22  H    2.740063   2.591065   3.276425   5.963096   2.222449
    23  H    8.710326   9.186594   4.994010   2.692537   6.340774
    24  H    9.351335   9.442215   6.129460   4.653453   6.428040
    25  H    8.174353   7.901777   5.712378   5.404194   4.968351
    26  H    5.525975   4.553433   5.279184   7.069987   2.731724
    27  H    5.290126   4.297748   5.727357   7.245048   3.771371
    28  H    4.039875   2.830261   5.300258   7.684994   3.037331
    29  H    4.111274   2.707537   6.124543   8.228666   4.199216
    30  H    2.167486   3.054884   2.934808   4.687131   3.840970
    31  H    2.178980   3.293332   2.583676   4.910839   3.735757
    32  H    1.095454   2.185500   5.009404   6.926125   5.381700
    33  H    1.095431   2.171025   4.837818   7.186811   5.060580
    34  H    2.182928   1.094152   6.008328   8.188502   5.186076
    35  H    2.169632   1.096739   5.507536   8.043192   4.448832
    36  H    5.920170   6.815515   2.535486   1.094577   5.032719
    37  H    7.636526   8.441059   3.832951   1.095738   6.065715
    38  H    6.818502   7.574825   2.552406   1.094288   4.846625
                   21         22         23         24         25
    21  H    0.000000
    22  H    3.800783   0.000000
    23  H    5.854701   7.855265   0.000000
    24  H    5.584079   8.279423   2.461653   0.000000
    25  H    4.023237   6.898302   4.283547   2.479682   0.000000
    26  H    3.049473   3.822363   7.709793   6.937413   4.718293
    27  H    2.360329   4.462098   7.737384   6.872440   4.666711
    28  H    3.825486   2.540424   8.984246   8.709951   6.730801
    29  H    3.569606   3.713839   9.315981   8.856730   6.796027
    30  H    3.035333   3.059587   6.618027   7.403246   6.569557
    31  H    4.295909   2.415990   7.251759   8.289826   7.520600
    32  H    4.567564   3.771915   8.887078   9.566698   8.499791
    33  H    5.296455   3.001399   9.402266  10.189275   9.068832
    34  H    4.392599   3.662081   9.809414   9.944519   8.339908
    35  H    4.805660   2.535510   9.878416  10.130776   8.513515
    36  H    4.835787   5.610508   3.512411   5.368429   5.903469
    37  H    5.964176   7.051430   2.312366   4.635981   5.858513
    38  H    5.567739   5.801070   3.354118   5.251281   5.886208
                   26         27         28         29         30
    26  H    0.000000
    27  H    1.747816   0.000000
    28  H    2.301334   2.968583   0.000000
    29  H    2.756740   2.282476   1.763486   0.000000
    30  H    5.214430   4.883788   4.624659   4.698812   0.000000
    31  H    5.711168   5.870047   4.717027   5.334949   1.777083
    32  H    6.200598   5.681728   4.871688   4.600807   2.302053
    33  H    6.252445   6.209474   4.535712   4.844582   2.986689
    34  H    5.015979   4.431769   3.398039   2.690918   3.665661
    35  H    4.738465   4.802434   2.638460   2.946147   3.895311
    36  H    7.094831   7.113213   7.450473   7.884044   3.907898
    37  H    8.044987   8.147289   8.750797   9.230523   5.599274
    38  H    7.176188   7.594773   7.678342   8.443245   5.019575
                   31         32         33         34         35
    31  H    0.000000
    32  H    2.805336   0.000000
    33  H    2.335087   1.773204   0.000000
    34  H    4.200864   2.350471   2.828479   0.000000
    35  H    3.686607   2.992933   2.311085   1.781103   0.000000
    36  H    4.206142   6.063291   6.419704   7.526942   7.483310
    37  H    5.884784   7.797454   8.142522   9.155439   9.087941
    38  H    4.861956   7.202557   7.194062   8.431219   8.052986
                   36         37         38
    36  H    0.000000
    37  H    1.756169   0.000000
    38  H    1.796203   1.763957   0.000000
 Stoichiometry    C16H19NO2
 Framework group  C1[X(C16H19NO2)]
 Deg. of freedom   108
 Full point group                 C1      NOp   1
 Largest Abelian subgroup         C1      NOp   1
 Largest concise Abelian subgroup C1      NOp   1
                         Standard orientation:                         
 ---------------------------------------------------------------------
 Center     Atomic      Atomic             Coordinates (Angstroms)
 Number     Number       Type             X           Y           Z
 ---------------------------------------------------------------------
      1          6           0        2.935526    1.027220   -0.112542
      2          6           0        4.131592    0.373776   -0.463956
      3          6           0        4.193230   -1.016493   -0.555584
      4          6           0        3.056101   -1.777473   -0.309338
      5          6           0        1.857173   -1.147980    0.023202
      6          6           0        1.791103    0.247889    0.151415
      7          6           0        0.508363    0.830147    0.620162
      8          8           0        0.792459   -1.986641    0.234608
      9          6           0       -0.449250   -1.353242   -0.092387
     10          6           0       -0.662253   -0.113940    0.768490
     11          6           0       -1.580268   -2.374923    0.141948
     12          6           0       -2.971043   -1.728916    0.218975
     13          7           0       -2.883182   -0.389308   -0.321180
     14          6           0       -2.041053    0.502626    0.495238
     15          6           0       -2.172233    1.768121   -0.340621
     16          6           0       -3.639215    1.749467   -0.793824
     17          6           0       -4.130879    0.325274   -0.530335
     18          8           0        0.431664    2.007097    0.963866
     19          6           0        2.949070    2.528824   -0.019312
     20          1           0       -0.633296   -0.434796    1.821337
     21          1           0       -0.430593   -1.092116   -1.162087
     22          1           0       -2.522058    0.682258    1.469133
     23          1           0        5.033432    0.950741   -0.663396
     24          1           0        5.127861   -1.504002   -0.821684
     25          1           0        3.098628   -2.860854   -0.385810
     26          1           0       -1.391886   -2.946206    1.059973
     27          1           0       -1.552576   -3.110235   -0.672694
     28          1           0       -3.327864   -1.717567    1.256378
     29          1           0       -3.677220   -2.338341   -0.356840
     30          1           0       -1.513591    1.742890   -1.217710
     31          1           0       -1.953261    2.676258    0.229196
     32          1           0       -3.709255    2.011537   -1.855160
     33          1           0       -4.234562    2.472280   -0.225430
     34          1           0       -4.696560   -0.068003   -1.380338
     35          1           0       -4.770337    0.301824    0.360384
     36          1           0        2.153432    2.961159   -0.634248
     37          1           0        3.892616    2.943604   -0.391227
     38          1           0        2.840598    2.848815    1.021507
 ---------------------------------------------------------------------
 Rotational constants (GHZ):           0.7659987           0.2740998           0.2143794
 Standard basis: STO-3G (5D, 7F)
 There are   114 symmetry adapted cartesian basis functions of A   symmetry.
 There are   114 symmetry adapted basis functions of A   symmetry.
   114 basis functions,   342 primitive gaussians,   114 cartesian basis functions
    69 alpha electrons       69 beta electrons
       nuclear repulsion energy      1488.4757390439 Hartrees.
 NAtoms=   38 NActive=   38 NUniq=   38 SFac= 1.00D+00 NAtFMM=   60 NAOKFM=F Big=F
 Integral buffers will be    131072 words long.
 Raffenetti 1 integral format.
 Two-electron integral symmetry is turned on.
 One-electron integrals computed using PRISM.
 NBasis=   114 RedAO= T EigKep=  1.74D-01  NBF=   114
 NBsUse=   114 1.00D-06 EigRej= -1.00D+00 NBFU=   114
 ExpMin= 1.69D-01 ExpMax= 1.31D+02 ExpMxC= 1.31D+02 IAcc=3 IRadAn=         5 AccDes= 0.00D+00
 Harris functional with IExCor=  205 and IRadAn=       5 diagonalized for initial guess.
 HarFok:  IExCor=  205 AccDes= 0.00D+00 IRadAn=         5 IDoV= 1 UseB2=F ITyADJ=14
 ICtDFT=  3500011 ScaDFX=  1.000000  1.000000  1.000000  1.000000
 FoFCou: FMM=F IPFlag=           0 FMFlag=      100000 FMFlg1=           0
         NFxFlg=           0 DoJE=T BraDBF=F KetDBF=T FulRan=T
         wScrn=  0.000000 ICntrl=       500 IOpCl=  0 I1Cent=   200000004 NGrid=           0
         NMat0=    1 NMatS0=      1 NMatT0=    0 NMatD0=    1 NMtDS0=    0 NMtDT0=    0
 Petite list used in FoFCou.
 Requested convergence on RMS density matrix=1.00D-08 within 128 cycles.
 Requested convergence on MAX density matrix=1.00D-06.
 Requested convergence on             energy=1.00D-06.
 No special actions if energy rises.
 Integral accuracy reduced to 1.0D-05 until final iterations.
 Initial convergence to 1.0D-05 achieved.  Increase integral accuracy.
 SCF Done:  E(RHF) =  -811.050282682     A.U. after   16 cycles
            NFock= 16  Conv=0.96D-08     -V/T= 2.0093
 Range of M.O.s used for correlation:     1   114
 NBasis=   114 NAE=    69 NBE=    69 NFC=     0 NFV=     0
 NROrb=    114 NOA=    69 NOB=    69 NVA=    45 NVB=    45
          Differentiating once with respect to magnetic field using GIAOs.
          Electric field/nuclear overlap derivatives assumed to be zero.
 FoFCou: FMM=F IPFlag=           0 FMFlag=      100000 FMFlg1=           0
         NFxFlg=           0 DoJE=F BraDBF=F KetDBF=T FulRan=T
         wScrn=  0.000000 ICntrl=      6100 IOpCl=  0 I1Cent=           7 NGrid=          38
         NMat0=    1 NMatS0=      1 NMatT0=    0 NMatD0=    1 NMtDS0=    0 NMtDT0=    0
 Symmetry not used in FoFCou.
 FoFJK:  IHMeth= 1 ICntrl=    6127 DoSepK=F KAlg= 0 I1Cent=           0 FoldK=F
 IRaf=         1 NMat=       1 IRICut=       1 DoRegI=T DoRafI=F ISym2E= 0 IDoP0=0 IntGTp=1.
          There are     3 degrees of freedom in the 1st order CPHF.  IDoFFX=0 NUNeed=     3.
      3 vectors produced by pass  0 Test12= 1.04D-13 3.33D-08 XBig12= 2.83D+01 1.57D+00.
 AX will form     3 AO Fock derivatives at one time.
      3 vectors produced by pass  1 Test12= 1.04D-13 3.33D-08 XBig12= 1.70D-01 2.34D-01.
      3 vectors produced by pass  2 Test12= 1.04D-13 3.33D-08 XBig12= 3.15D-03 2.12D-02.
      3 vectors produced by pass  3 Test12= 1.04D-13 3.33D-08 XBig12= 1.12D-04 2.52D-03.
      3 vectors produced by pass  4 Test12= 1.04D-13 3.33D-08 XBig12= 1.20D-06 1.37D-04.
      3 vectors produced by pass  5 Test12= 1.04D-13 3.33D-08 XBig12= 1.55D-08 1.86D-05.
      3 vectors produced by pass  6 Test12= 1.04D-13 3.33D-08 XBig12= 2.88D-10 2.63D-06.
      3 vectors produced by pass  7 Test12= 1.04D-13 3.33D-08 XBig12= 4.45D-12 2.89D-07.
      1 vectors produced by pass  8 Test12= 1.04D-13 3.33D-08 XBig12= 9.10D-14 5.01D-08.
 InvSVY:  IOpt=1 It=  1 EMax= 1.78D-15
 Solved reduced A of dimension    25 with     3 vectors.
 Calculating GIAO nuclear magnetic shielding tensors.
 SCF GIAO Magnetic shielding tensor (ppm):
      1  C    Isotropic =   113.8566   Anisotropy =   169.3792
   XX=    91.9527   YX=    -9.8946   ZX=    36.7872
   XY=   -13.0148   YY=    33.7086   ZY=    -7.4230
   XZ=    36.5515   YZ=   -12.5611   ZZ=   215.9083
   Eigenvalues:    31.4816    83.3120   226.7761
      2  C    Isotropic =   123.5668   Anisotropy =   143.6703
   XX=    68.0183   YX=   -41.8376   ZX=    36.8657
   XY=   -35.7995   YY=    93.2577   ZY=     1.8511
   XZ=    37.6121   YZ=    -1.5204   ZZ=   209.4245
   Eigenvalues:    34.4315   116.9220   219.3470
      3  C    Isotropic =   117.4523   Anisotropy =   168.1788
   XX=    50.6453   YX=    29.3950   ZX=    48.1788
   XY=    31.6256   YY=    85.3851   ZY=   -16.0257
   XZ=    47.5378   YZ=   -16.0099   ZZ=   216.3264
   Eigenvalues:    20.3608   102.4245   229.5715
      4  C    Isotropic =   130.8701   Anisotropy =   146.4762
   XX=   122.0458   YX=    -0.6903   ZX=    26.1748
   XY=     4.3927   YY=    49.3693   ZY=   -11.4208
   XZ=    25.5643   YZ=   -16.7790   ZZ=   221.1953
   Eigenvalues:    47.9983   116.0912   228.5209
      5  C    Isotropic =   104.2392   Anisotropy =   133.5142
   XX=    66.5656   YX=   -20.8594   ZX=    29.2235
   XY=   -10.7675   YY=    62.9132   ZY=    -7.9808
   XZ=    38.4352   YZ=    -5.9594   ZZ=   183.2389
   Eigenvalues:    46.1290    73.3400   193.2487
      6  C    Isotropic =   129.5597   Anisotropy =   150.6487
   XX=    84.5131   YX=    13.4968   ZX=    45.0957
   XY=    11.3418   YY=    90.0710   ZY=   -16.7424
   XZ=    48.9328   YZ=   -11.0531   ZZ=   214.0951
   Eigenvalues:    60.3669    98.3201   229.9922
      7  C    Isotropic =    90.0589   Anisotropy =   137.3952
   XX=   -29.7705   YX=   -24.7323   ZX=    54.5873
   XY=   -24.7405   YY=   134.1091   ZY=    -3.3645
   XZ=    51.1093   YZ=    -5.8510   ZZ=   165.8379
   Eigenvalues:   -46.0422   134.5630   181.6557
      8  O    Isotropic =   341.6768   Anisotropy =    92.7199
   XX=   297.5290   YX=    30.6615   ZX=     4.5725
   XY=    46.3099   YY=   333.0536   ZY=    -7.6565
   XZ=    38.2031   YZ=   -40.5465   ZZ=   394.4479
   Eigenvalues:   265.4062   356.1342   403.4901
      9  C    Isotropic =   186.2625   Anisotropy =    52.6262
   XX=   213.5521   YX=   -12.9157   ZX=     9.0742
   XY=   -16.7414   YY=   178.9030   ZY=    -1.0137
   XZ=    11.6491   YZ=    -8.0168   ZZ=   166.3323
   Eigenvalues:   163.9756   173.4652   221.3466
     10  C    Isotropic =   209.3672   Anisotropy =    12.7292
   XX=   216.3071   YX=    -1.1262   ZX=     4.1629
   XY=     0.6677   YY=   207.1863   ZY=    -0.7430
   XZ=     4.5120   YZ=    -4.7416   ZZ=   204.6083
   Eigenvalues:   201.9369   208.3114   217.8534
     11  C    Isotropic =   217.1035   Anisotropy =    18.1404
   XX=   228.4482   YX=     2.7981   ZX=    -0.5194
   XY=     1.6079   YY=   222.2758   ZY=    -3.5070
   XZ=     0.3927   YZ=    -3.2224   ZZ=   200.5865
   Eigenvalues:   200.0740   222.0394   229.1971
     12  C    Isotropic =   203.8569   Anisotropy =    37.1532
   XX=   195.0975   YX=    -3.8067   ZX=    -1.8153
   XY=    -3.8354   YY=   225.1762   ZY=   -11.2874
   XZ=    -1.3562   YZ=   -10.2668   ZZ=   191.2969
   Eigenvalues:   187.2728   195.6721   228.6256
     13  N    Isotropic =   295.9428   Anisotropy =    56.8317
   XX=   318.3437   YX=     1.9169   ZX=    35.2629
   XY=     7.5315   YY=   316.9230   ZY=    -7.5108
   XZ=    33.3361   YZ=     4.6998   ZZ=   252.5616
   Eigenvalues:   237.8060   316.1918   333.8305
     14  C    Isotropic =   192.9825   Anisotropy =    40.6768
   XX=   201.9817   YX=    14.8646   ZX=     9.7983
   XY=    14.1575   YY=   200.2693   ZY=     8.0557
   XZ=    18.5407   YZ=     1.8270   ZZ=   176.6966
   Eigenvalues:   170.2647   188.5825   220.1004
     15  C    Isotropic =   215.0481   Anisotropy =    21.1919
   XX=   222.3183   YX=     0.9869   ZX=    10.5825
   XY=    -0.3166   YY=   219.4939   ZY=   -10.0007
   XZ=     7.1207   YZ=   -14.4754   ZZ=   203.3322
   Eigenvalues:   194.4389   221.5295   229.1760
     16  C    Isotropic =   215.5924   Anisotropy =    21.2697
   XX=   224.8512   YX=     4.2270   ZX=    11.3380
   XY=     4.1114   YY=   224.9095   ZY=    -5.8382
   XZ=    11.1293   YZ=    -7.0438   ZZ=   197.0166
   Eigenvalues:   191.3835   225.6215   229.7723
     17  C    Isotropic =   200.7613   Anisotropy =    46.0226
   XX=   214.3589   YX=   -14.5898   ZX=    11.3805
   XY=   -19.9884   YY=   205.7761   ZY=   -10.5506
   XZ=     7.8976   YZ=    -7.7985   ZZ=   182.1490
   Eigenvalues:   178.4776   192.3633   231.4431
     18  O    Isotropic =  -345.3986   Anisotropy =  1263.4991
   XX=  -339.0346   YX=    30.7857   ZX=   248.9529
   XY=    -5.3081   YY= -1034.5577   ZY=  -400.3993
   XZ=   204.4682   YZ=  -381.4972   ZZ=   337.3964
   Eigenvalues: -1144.5227  -388.6072   496.9341
     19  C    Isotropic =   218.1957   Anisotropy =    23.0317
   XX=   214.5525   YX=    -0.1801   ZX=    -2.0317
   XY=     0.0779   YY=   233.4418   ZY=     1.2672
   XZ=    -3.7936   YZ=     2.1049   ZZ=   206.5929
   Eigenvalues:   205.5505   215.4865   233.5502
     20  H    Isotropic =    31.0468   Anisotropy =    10.4956
   XX=    28.5919   YX=    -1.3034   ZX=     2.5012
   XY=    -0.8685   YY=    26.8695   ZY=    -0.7911
   XZ=    -0.7613   YZ=    -2.5573   ZZ=    37.6789
   Eigenvalues:    26.2252    28.8713    38.0438
     21  H    Isotropic =    30.8886   Anisotropy =     4.9810
   XX=    31.9025   YX=    -0.3113   ZX=    -1.3712
   XY=    -1.4417   YY=    26.5667   ZY=    -1.7075
   XZ=     1.0585   YZ=     1.3377   ZZ=    34.1965
   Eigenvalues:    26.4209    32.0356    34.2093
     22  H    Isotropic =    31.5916   Anisotropy =     9.0023
   XX=    30.2224   YX=    -1.9056   ZX=    -2.2534
   XY=    -2.5467   YY=    28.5530   ZY=     2.4477
   XZ=    -2.2505   YZ=     1.6979   ZZ=    35.9994
   Eigenvalues:    26.9852    30.1964    37.5932
     23  H    Isotropic =    25.8630   Anisotropy =     6.0755
   XX=    27.8742   YX=    -1.4960   ZX=    -1.8085
   XY=    -1.4331   YY=    28.1626   ZY=     0.8805
   XZ=    -1.9288   YZ=     0.7468   ZZ=    21.5523
   Eigenvalues:    21.0178    26.6579    29.9133
     24  H    Isotropic =    25.2911   Anisotropy =     3.6164
   XX=    26.9392   YX=     0.3256   ZX=    -1.3120
   XY=     0.6889   YY=    27.2715   ZY=     0.1995
   XZ=    -1.1011   YZ=     0.1645   ZZ=    21.6624
   Eigenvalues:    21.3857    26.7855    27.7020
     25  H    Isotropic =    25.6582   Anisotropy =     7.1908
   XX=    29.4155   YX=    -1.6573   ZX=    -2.1119
   XY=    -1.0718   YY=    26.9773   ZY=     0.6020
   XZ=    -1.9825   YZ=     0.2622   ZZ=    20.5817
   Eigenvalues:    20.1278    26.3947    30.4520
     26  H    Isotropic =    31.5425   Anisotropy =    13.0885
   XX=    29.7263   YX=    -0.9762   ZX=     0.7370
   XY=    -1.1809   YY=    34.0258   ZY=    -7.2599
   XZ=     0.5671   YZ=    -7.7525   ZZ=    30.8755
   Eigenvalues:    24.7748    29.5847    40.2682
     27  H    Isotropic =    31.1610   Anisotropy =    14.4166
   XX=    29.0588   YX=     0.6098   ZX=    -0.5169
   XY=    -0.1054   YY=    35.7121   ZY=     7.7255
   XZ=     0.2331   YZ=     7.8946   ZZ=    28.7122
   Eigenvalues:    23.6416    29.0694    40.7721
     28  H    Isotropic =    32.2623   Anisotropy =    11.3306
   XX=    31.7219   YX=     0.9732   ZX=    -5.0023
   XY=     0.7971   YY=    30.3309   ZY=    -3.8745
   XZ=    -5.0463   YZ=    -3.6128   ZZ=    34.7342
   Eigenvalues:    26.9642    30.0067    39.8161
     29  H    Isotropic =    31.5373   Anisotropy =    13.9869
   XX=    34.0829   YX=     4.8948   ZX=     4.0154
   XY=     4.5407   YY=    34.6231   ZY=     3.4274
   XZ=     4.2706   YZ=     2.9253   ZZ=    25.9058
   Eigenvalues:    24.0188    29.7311    40.8618
     30  H    Isotropic =    32.6361   Anisotropy =    10.2693
   XX=    35.1798   YX=     0.9024   ZX=    -5.2116
   XY=    -0.0266   YY=    29.3757   ZY=    -4.5137
   XZ=    -2.7717   YZ=    -4.5555   ZZ=    33.3529
   Eigenvalues:    25.9971    32.4290    39.4823
     31  H    Isotropic =    31.8209   Anisotropy =    15.0487
   XX=    29.8049   YX=     3.2177   ZX=     2.0162
   XY=     2.4531   YY=    39.4639   ZY=     4.8913
   XZ=     4.0690   YZ=     3.8046   ZZ=    26.1937
   Eigenvalues:    24.0141    29.5952    41.8533
     32  H    Isotropic =    31.8938   Anisotropy =    14.8818
   XX=    28.7419   YX=    -0.9959   ZX=     3.7202
   XY=    -0.9759   YY=    29.5805   ZY=    -6.1476
   XZ=     3.9869   YZ=    -5.9792   ZZ=    37.3588
   Eigenvalues:    25.7753    28.0910    41.8150
     33  H    Isotropic =    32.0643   Anisotropy =    14.8901
   XX=    33.3518   YX=    -6.2422   ZX=    -2.3490
   XY=    -6.1934   YY=    36.1937   ZY=     2.9745
   XZ=    -1.8622   YZ=     2.8513   ZZ=    26.6474
   Eigenvalues:    25.7969    28.4050    41.9910
     34  H    Isotropic =    31.7117   Anisotropy =    14.2716
   XX=    33.9057   YX=     2.4468   ZX=     7.9428
   XY=     1.8324   YY=    29.4362   ZY=     1.3418
   XZ=     7.3802   YZ=     2.1272   ZZ=    31.7933
   Eigenvalues:    25.1130    28.7961    41.2262
     35  H    Isotropic =    32.3609   Anisotropy =    12.0257
   XX=    37.2932   YX=    -0.3416   ZX=    -5.8254
   XY=    -0.6820   YY=    29.5349   ZY=    -0.7108
   XZ=    -5.3494   YZ=    -1.5263   ZZ=    30.2547
   Eigenvalues:    26.6492    30.0556    40.3781
     36  H    Isotropic =    31.1712   Anisotropy =     9.9354
   XX=    33.6424   YX=    -3.4757   ZX=     3.0328
   XY=    -1.8393   YY=    32.8634   ZY=    -2.3923
   XZ=     1.9038   YZ=    -5.4225   ZZ=    27.0079
   Eigenvalues:    24.9148    30.8041    37.7948
     37  H    Isotropic =    30.9893   Anisotropy =    12.2669
   XX=    35.4286   YX=     3.3553   ZX=    -3.8006
   XY=     4.3117   YY=    32.3347   ZY=    -1.0701
   XZ=    -4.1054   YZ=    -1.4795   ZZ=    25.2046
   Eigenvalues:    23.8544    29.9463    39.1672
     38  H    Isotropic =    30.7633   Anisotropy =    11.3517
   XX=    28.2728   YX=     0.9838   ZX=    -1.8326
   XY=     0.1963   YY=    30.9134   ZY=     4.6044
   XZ=    -1.4447   YZ=     7.6912   ZZ=    33.1038
   Eigenvalues:    25.0489    28.9099    38.3311
 End of Minotr F.D. properties file   721 does not exist.
 End of Minotr F.D. properties file   722 does not exist.
 End of Minotr F.D. properties file   788 does not exist.

 **********************************************************************

            Population analysis using the SCF Density.

 **********************************************************************

 Orbital symmetries:
       Occupied  (A) (A) (A) (A) (A) (A) (A) (A) (A) (A) (A) (A)
                 (A) (A) (A) (A) (A) (A) (A) (A) (A) (A) (A) (A)
                 (A) (A) (A) (A) (A) (A) (A) (A) (A) (A) (A) (A)
                 (A) (A) (A) (A) (A) (A) (A) (A) (A) (A) (A) (A)
                 (A) (A) (A) (A) (A) (A) (A) (A) (A) (A) (A) (A)
                 (A) (A) (A) (A) (A) (A) (A) (A) (A)
       Virtual   (A) (A) (A) (A) (A) (A) (A) (A) (A) (A) (A) (A)
                 (A) (A) (A) (A) (A) (A) (A) (A) (A) (A) (A) (A)
                 (A) (A) (A) (A) (A) (A) (A) (A) (A) (A) (A) (A)
                 (A) (A) (A) (A) (A) (A) (A) (A) (A)
 The electronic state is 1-A.
 Alpha  occ. eigenvalues --  -20.29557 -20.26001 -15.31213 -11.11493 -11.10827
 Alpha  occ. eigenvalues --  -11.09450 -11.08038 -11.07700 -11.07059 -11.06235
 Alpha  occ. eigenvalues --  -11.05087 -11.04874 -11.04232 -11.04075 -11.03984
 Alpha  occ. eigenvalues --  -11.03835 -11.02788 -11.02140 -11.01841  -1.34208
 Alpha  occ. eigenvalues --   -1.31359  -1.20433  -1.09617  -1.04730  -1.02574
 Alpha  occ. eigenvalues --   -0.99022  -0.97449  -0.94529  -0.91921  -0.88122
 Alpha  occ. eigenvalues --   -0.83981  -0.80416  -0.77497  -0.75067  -0.74266
 Alpha  occ. eigenvalues --   -0.72177  -0.68488  -0.65356  -0.64058  -0.62446
 Alpha  occ. eigenvalues --   -0.60868  -0.59790  -0.59302  -0.57293  -0.55545
 Alpha  occ. eigenvalues --   -0.54995  -0.54160  -0.53840  -0.52396  -0.51148
 Alpha  occ. eigenvalues --   -0.50693  -0.49709  -0.48536  -0.47724  -0.46942
 Alpha  occ. eigenvalues --   -0.45787  -0.45095  -0.44431  -0.43452  -0.43192
 Alpha  occ. eigenvalues --   -0.42539  -0.41579  -0.39693  -0.39394  -0.36324
 Alpha  occ. eigenvalues --   -0.31135  -0.28476  -0.27176  -0.24534
 Alpha virt. eigenvalues --    0.21438   0.26954   0.34672   0.48971   0.51433
 Alpha virt. eigenvalues --    0.52977   0.54327   0.56291   0.58224   0.59101
 Alpha virt. eigenvalues --    0.60691   0.61679   0.62886   0.63527   0.64838
 Alpha virt. eigenvalues --    0.65748   0.66236   0.68168   0.69042   0.70338
 Alpha virt. eigenvalues --    0.71007   0.71364   0.72122   0.72942   0.73719
 Alpha virt. eigenvalues --    0.73895   0.74497   0.75584   0.75824   0.76836
 Alpha virt. eigenvalues --    0.78421   0.78546   0.79021   0.79959   0.83237
 Alpha virt. eigenvalues --    0.83645   0.85259   0.86347   0.87118   0.88527
 Alpha virt. eigenvalues --    0.90495   0.93463   1.00894   1.12014   1.13611
          Condensed to atoms (all electrons):
               1          2          3          4          5          6
     1  C    4.758412   0.505183  -0.028637  -0.009906  -0.027910   0.497384
     2  C    0.505183   4.806782   0.504377  -0.031406  -0.011398  -0.031194
     3  C   -0.028637   0.504377   4.759760   0.508494  -0.029403  -0.009521
     4  C   -0.009906  -0.031406   0.508494   4.806291   0.499516  -0.032136
     5  C   -0.027910  -0.011398  -0.029403   0.499516   4.757744   0.489214
     6  C    0.497384  -0.031194  -0.009521  -0.032136   0.489214   4.872778
     7  C   -0.023328   0.000763   0.000018   0.000794  -0.029395   0.388853
     8  O    0.000246   0.000008   0.000352  -0.026947   0.292454  -0.017081
     9  C    0.000033   0.000000  -0.000021   0.001669  -0.041725  -0.007986
    10  C    0.000607  -0.000007  -0.000000  -0.000036  -0.004481  -0.034640
    11  C    0.000000  -0.000000   0.000000  -0.000014   0.001576   0.000002
    12  C   -0.000000   0.000000  -0.000000   0.000000  -0.000012  -0.000000
    13  N    0.000000  -0.000000  -0.000000   0.000000  -0.000000  -0.000004
    14  C   -0.000004   0.000000  -0.000000   0.000000   0.000015   0.000543
    15  C   -0.000000   0.000000   0.000000  -0.000000   0.000000   0.000025
    16  C   -0.000000   0.000000   0.000000   0.000000  -0.000000   0.000000
    17  C   -0.000000   0.000000   0.000000   0.000000  -0.000000   0.000000
    18  O   -0.001041  -0.000004  -0.000000  -0.000002   0.000312  -0.027646
    19  C    0.381467  -0.030139   0.000874   0.000011   0.000715  -0.024144
    20  H   -0.000017   0.000000   0.000000  -0.000003   0.000046   0.000450
    21  H   -0.000016  -0.000001   0.000000   0.000137  -0.003819   0.000719
    22  H    0.000000  -0.000000   0.000000  -0.000000  -0.000001  -0.000015
    23  H   -0.025071   0.394121  -0.026805   0.001418   0.000049   0.001263
    24  H    0.001318  -0.024832   0.393565  -0.025172   0.001376   0.000008
    25  H    0.000035   0.001378  -0.024584   0.393484  -0.025282   0.001230
    26  H    0.000000   0.000000   0.000000  -0.000002   0.000047  -0.000000
    27  H   -0.000000  -0.000000  -0.000000   0.000000  -0.000013   0.000000
    28  H    0.000000  -0.000000   0.000000  -0.000000   0.000000  -0.000000
    29  H    0.000000  -0.000000   0.000000  -0.000000   0.000000   0.000000
    30  H    0.000001  -0.000000   0.000000  -0.000000  -0.000000  -0.000031
    31  H    0.000000   0.000000  -0.000000   0.000000  -0.000000   0.000002
    32  H    0.000000  -0.000000  -0.000000  -0.000000   0.000000   0.000000
    33  H   -0.000000   0.000000   0.000000  -0.000000   0.000000   0.000000
    34  H    0.000000  -0.000000   0.000000  -0.000000  -0.000000  -0.000000
    35  H    0.000000   0.000000  -0.000000   0.000000   0.000000   0.000000
    36  H   -0.021083   0.000909  -0.000023   0.000002   0.000005  -0.002282
    37  H   -0.020594  -0.005585   0.000059  -0.000000  -0.000016   0.001130
    38  H   -0.021143   0.000475  -0.000023   0.000003  -0.000004  -0.001416
               7          8          9         10         11         12
     1  C   -0.023328   0.000246   0.000033   0.000607   0.000000  -0.000000
     2  C    0.000763   0.000008   0.000000  -0.000007  -0.000000   0.000000
     3  C    0.000018   0.000352  -0.000021  -0.000000   0.000000  -0.000000
     4  C    0.000794  -0.026947   0.001669  -0.000036  -0.000014   0.000000
     5  C   -0.029395   0.292454  -0.041725  -0.004481   0.001576  -0.000012
     6  C    0.388853  -0.017081  -0.007986  -0.034640   0.000002  -0.000000
     7  C    4.763943  -0.001701  -0.022959   0.357140   0.000716   0.000006
     8  O   -0.001701   7.796813   0.262383  -0.017257  -0.018021   0.000211
     9  C   -0.022959   0.262383   4.735020   0.356209   0.358969  -0.018606
    10  C    0.357140  -0.017257   0.356209   4.823377  -0.024022  -0.003398
    11  C    0.000716  -0.018021   0.358969  -0.024022   4.760421   0.358877
    12  C    0.000006   0.000211  -0.018606  -0.003398   0.358877   4.696335
    13  N    0.000379   0.000005  -0.007511  -0.019970  -0.025436   0.331758
    14  C   -0.018715   0.000230  -0.020363   0.358689  -0.003248  -0.034194
    15  C   -0.003611  -0.000001   0.000251  -0.015598   0.000017   0.001577
    16  C    0.000020   0.000000  -0.000009   0.000764  -0.000016   0.001447
    17  C   -0.000007   0.000000   0.000088   0.001143   0.001121  -0.030766
    18  O    0.432122   0.000000   0.000300  -0.025699  -0.000001  -0.000000
    19  C   -0.002610  -0.000001  -0.000000   0.000007  -0.000000   0.000000
    20  H   -0.025539  -0.000652  -0.024133   0.378574  -0.002733   0.000075
    21  H   -0.002022  -0.018244   0.377234  -0.025724  -0.023742  -0.000228
    22  H    0.000837  -0.000005   0.001221  -0.028177  -0.000105  -0.002443
    23  H   -0.000014   0.000000  -0.000000   0.000000   0.000000  -0.000000
    24  H    0.000001  -0.000005   0.000000  -0.000000  -0.000000   0.000000
    25  H   -0.000018  -0.001096   0.000035   0.000000  -0.000002   0.000000
    26  H   -0.000009  -0.001168  -0.020922  -0.000917   0.380322  -0.021412
    27  H   -0.000017   0.000004  -0.022397   0.001271   0.383175  -0.021123
    28  H    0.000001  -0.000004   0.000601  -0.000204  -0.024726   0.377753
    29  H    0.000000  -0.000003   0.000987   0.000011  -0.020947   0.383647
    30  H    0.000036  -0.000001   0.000060  -0.002247   0.000004   0.000002
    31  H   -0.000178   0.000000  -0.000004   0.000061  -0.000001  -0.000032
    32  H   -0.000001  -0.000000   0.000001  -0.000017   0.000001  -0.000018
    33  H   -0.000000  -0.000000   0.000000  -0.000009   0.000000  -0.000034
    34  H    0.000000  -0.000000  -0.000002  -0.000018   0.000010  -0.000473
    35  H   -0.000000   0.000000   0.000000  -0.000022  -0.000021  -0.002988
    36  H   -0.000086  -0.000000  -0.000000  -0.000003  -0.000000   0.000000
    37  H    0.000015   0.000000   0.000000   0.000000   0.000000  -0.000000
    38  H   -0.000044  -0.000000  -0.000000  -0.000002   0.000000   0.000000
              13         14         15         16         17         18
     1  C    0.000000  -0.000004  -0.000000  -0.000000  -0.000000  -0.001041
     2  C   -0.000000   0.000000   0.000000   0.000000   0.000000  -0.000004
     3  C   -0.000000  -0.000000   0.000000   0.000000   0.000000  -0.000000
     4  C    0.000000   0.000000  -0.000000   0.000000   0.000000  -0.000002
     5  C   -0.000000   0.000015   0.000000  -0.000000  -0.000000   0.000312
     6  C   -0.000004   0.000543   0.000025   0.000000   0.000000  -0.027646
     7  C    0.000379  -0.018715  -0.003611   0.000020  -0.000007   0.432122
     8  O    0.000005   0.000230  -0.000001   0.000000   0.000000   0.000000
     9  C   -0.007511  -0.020363   0.000251  -0.000009   0.000088   0.000300
    10  C   -0.019970   0.358689  -0.015598   0.000764   0.001143  -0.025699
    11  C   -0.025436  -0.003248   0.000017  -0.000016   0.001121  -0.000001
    12  C    0.331758  -0.034194   0.001577   0.001447  -0.030766  -0.000000
    13  N    6.523399   0.328914  -0.040307  -0.034108   0.336413   0.000000
    14  C    0.328914   4.734416   0.365149  -0.032944  -0.046696  -0.000930
    15  C   -0.040307   0.365149   4.757706   0.361425  -0.029792  -0.000584
    16  C   -0.034108  -0.032944   0.361425   4.758889   0.361716   0.000004
    17  C    0.336413  -0.046696  -0.029792   0.361716   4.708801  -0.000000
    18  O    0.000000  -0.000930  -0.000584   0.000004  -0.000000   7.858766
    19  C    0.000000  -0.000000  -0.000000   0.000000  -0.000000  -0.001548
    20  H    0.000499  -0.021890   0.000969  -0.000015  -0.000025  -0.000787
    21  H   -0.000177  -0.001473   0.000055  -0.000003  -0.000010   0.000003
    22  H   -0.022535   0.378834  -0.026253  -0.001361  -0.003134  -0.000016
    23  H    0.000000  -0.000000  -0.000000  -0.000000  -0.000000   0.000000
    24  H    0.000000   0.000000  -0.000000   0.000000   0.000000  -0.000000
    25  H    0.000000   0.000000  -0.000000  -0.000000   0.000000   0.000000
    26  H    0.000922   0.000040   0.000000   0.000000  -0.000024   0.000000
    27  H    0.000562   0.000013   0.000001   0.000000  -0.000019   0.000000
    28  H   -0.023014  -0.003758  -0.000005  -0.000023  -0.001488   0.000000
    29  H   -0.019325   0.001778  -0.000035   0.000013  -0.002682  -0.000000
    30  H   -0.000894  -0.021350   0.383454  -0.021273   0.000799  -0.000117
    31  H    0.001283  -0.019537   0.384018  -0.020469   0.001268  -0.000091
    32  H    0.000557   0.001361  -0.020962   0.384883  -0.020478   0.000000
    33  H    0.001075   0.000664  -0.020912   0.383888  -0.021729   0.000000
    34  H   -0.020893   0.001975   0.001239  -0.019211   0.383762   0.000000
    35  H   -0.022054  -0.001840   0.000529  -0.022867   0.378767   0.000000
    36  H   -0.000000   0.000000  -0.000001   0.000000   0.000000  -0.000287
    37  H    0.000000  -0.000000   0.000000  -0.000000  -0.000000   0.000061
    38  H   -0.000000   0.000000   0.000000  -0.000000   0.000000  -0.000398
              19         20         21         22         23         24
     1  C    0.381467  -0.000017  -0.000016   0.000000  -0.025071   0.001318
     2  C   -0.030139   0.000000  -0.000001  -0.000000   0.394121  -0.024832
     3  C    0.000874   0.000000   0.000000   0.000000  -0.026805   0.393565
     4  C    0.000011  -0.000003   0.000137  -0.000000   0.001418  -0.025172
     5  C    0.000715   0.000046  -0.003819  -0.000001   0.000049   0.001376
     6  C   -0.024144   0.000450   0.000719  -0.000015   0.001263   0.000008
     7  C   -0.002610  -0.025539  -0.002022   0.000837  -0.000014   0.000001
     8  O   -0.000001  -0.000652  -0.018244  -0.000005   0.000000  -0.000005
     9  C   -0.000000  -0.024133   0.377234   0.001221  -0.000000   0.000000
    10  C    0.000007   0.378574  -0.025724  -0.028177   0.000000  -0.000000
    11  C   -0.000000  -0.002733  -0.023742  -0.000105   0.000000  -0.000000
    12  C    0.000000   0.000075  -0.000228  -0.002443  -0.000000   0.000000
    13  N    0.000000   0.000499  -0.000177  -0.022535   0.000000   0.000000
    14  C   -0.000000  -0.021890  -0.001473   0.378834  -0.000000   0.000000
    15  C   -0.000000   0.000969   0.000055  -0.026253  -0.000000  -0.000000
    16  C    0.000000  -0.000015  -0.000003  -0.001361  -0.000000   0.000000
    17  C   -0.000000  -0.000025  -0.000010  -0.003134  -0.000000   0.000000
    18  O   -0.001548  -0.000787   0.000003  -0.000016   0.000000  -0.000000
    19  C    4.712987  -0.000000  -0.000000   0.000000  -0.004215  -0.000016
    20  H   -0.000000   0.631472   0.001932  -0.007397  -0.000000  -0.000000
    21  H   -0.000000   0.001932   0.635532  -0.000013  -0.000000   0.000000
    22  H    0.000000  -0.007397  -0.000013   0.666823   0.000000  -0.000000
    23  H   -0.004215  -0.000000  -0.000000   0.000000   0.605290  -0.003746
    24  H   -0.000016  -0.000000   0.000000  -0.000000  -0.003746   0.594456
    25  H    0.000000  -0.000000   0.000001  -0.000000  -0.000032  -0.003700
    26  H   -0.000000   0.000256   0.001734   0.000008   0.000000  -0.000000
    27  H   -0.000000   0.000017  -0.004521   0.000002  -0.000000   0.000000
    28  H   -0.000000  -0.000068  -0.000023   0.001746   0.000000  -0.000000
    29  H   -0.000000  -0.000001  -0.000003  -0.000032   0.000000  -0.000000
    30  H   -0.000000   0.000000   0.000038   0.001829   0.000000  -0.000000
    31  H    0.000000  -0.000012  -0.000000  -0.003487   0.000000   0.000000
    32  H    0.000000   0.000000   0.000001  -0.000010   0.000000  -0.000000
    33  H   -0.000000   0.000001   0.000000   0.000111  -0.000000  -0.000000
    34  H    0.000000   0.000000   0.000002  -0.000052   0.000000  -0.000000
    35  H    0.000000   0.000003  -0.000001   0.001339  -0.000000   0.000000
    36  H    0.380909  -0.000000   0.000000  -0.000000   0.000064   0.000000
    37  H    0.382696   0.000000  -0.000000   0.000000   0.000177  -0.000003
    38  H    0.380575   0.000000  -0.000000  -0.000000   0.000075   0.000000
              25         26         27         28         29         30
     1  C    0.000035   0.000000  -0.000000   0.000000   0.000000   0.000001
     2  C    0.001378   0.000000  -0.000000  -0.000000  -0.000000  -0.000000
     3  C   -0.024584   0.000000  -0.000000   0.000000   0.000000   0.000000
     4  C    0.393484  -0.000002   0.000000  -0.000000  -0.000000  -0.000000
     5  C   -0.025282   0.000047  -0.000013   0.000000   0.000000  -0.000000
     6  C    0.001230  -0.000000   0.000000  -0.000000   0.000000  -0.000031
     7  C   -0.000018  -0.000009  -0.000017   0.000001   0.000000   0.000036
     8  O   -0.001096  -0.001168   0.000004  -0.000004  -0.000003  -0.000001
     9  C    0.000035  -0.020922  -0.022397   0.000601   0.000987   0.000060
    10  C    0.000000  -0.000917   0.001271  -0.000204   0.000011  -0.002247
    11  C   -0.000002   0.380322   0.383175  -0.024726  -0.020947   0.000004
    12  C    0.000000  -0.021412  -0.021123   0.377753   0.383647   0.000002
    13  N    0.000000   0.000922   0.000562  -0.023014  -0.019325  -0.000894
    14  C    0.000000   0.000040   0.000013  -0.003758   0.001778  -0.021350
    15  C   -0.000000   0.000000   0.000001  -0.000005  -0.000035   0.383454
    16  C   -0.000000   0.000000   0.000000  -0.000023   0.000013  -0.021273
    17  C    0.000000  -0.000024  -0.000019  -0.001488  -0.002682   0.000799
    18  O    0.000000   0.000000   0.000000   0.000000  -0.000000  -0.000117
    19  C    0.000000  -0.000000  -0.000000  -0.000000  -0.000000  -0.000000
    20  H   -0.000000   0.000256   0.000017  -0.000068  -0.000001   0.000000
    21  H    0.000001   0.001734  -0.004521  -0.000023  -0.000003   0.000038
    22  H   -0.000000   0.000008   0.000002   0.001746  -0.000032   0.001829
    23  H   -0.000032   0.000000  -0.000000   0.000000   0.000000   0.000000
    24  H   -0.003700  -0.000000   0.000000  -0.000000  -0.000000  -0.000000
    25  H    0.589166  -0.000000   0.000000  -0.000000  -0.000000   0.000000
    26  H   -0.000000   0.628385  -0.023843  -0.005945   0.001117  -0.000000
    27  H    0.000000  -0.023843   0.630874   0.001788  -0.006898  -0.000000
    28  H   -0.000000  -0.005945   0.001788   0.659560  -0.026121  -0.000002
    29  H   -0.000000   0.001117  -0.006898  -0.026121   0.624364   0.000000
    30  H    0.000000  -0.000000  -0.000000  -0.000002   0.000000   0.631399
    31  H   -0.000000  -0.000000  -0.000000   0.000001   0.000001  -0.022885
    32  H   -0.000000  -0.000000  -0.000000  -0.000001  -0.000000  -0.006442
    33  H   -0.000000  -0.000000  -0.000000   0.000003  -0.000001   0.001675
    34  H    0.000000  -0.000000   0.000000  -0.000157   0.000426  -0.000035
    35  H   -0.000000   0.000001  -0.000000   0.001511  -0.000280  -0.000031
    36  H   -0.000000   0.000000   0.000000  -0.000000  -0.000000   0.000001
    37  H    0.000000   0.000000  -0.000000   0.000000   0.000000   0.000000
    38  H   -0.000000  -0.000000  -0.000000  -0.000000   0.000000  -0.000000
              31         32         33         34         35         36
     1  C    0.000000   0.000000  -0.000000   0.000000   0.000000  -0.021083
     2  C    0.000000  -0.000000   0.000000  -0.000000   0.000000   0.000909
     3  C   -0.000000  -0.000000   0.000000   0.000000  -0.000000  -0.000023
     4  C    0.000000  -0.000000  -0.000000  -0.000000   0.000000   0.000002
     5  C   -0.000000   0.000000   0.000000  -0.000000   0.000000   0.000005
     6  C    0.000002   0.000000   0.000000  -0.000000   0.000000  -0.002282
     7  C   -0.000178  -0.000001  -0.000000   0.000000  -0.000000  -0.000086
     8  O    0.000000  -0.000000  -0.000000  -0.000000   0.000000  -0.000000
     9  C   -0.000004   0.000001   0.000000  -0.000002   0.000000  -0.000000
    10  C    0.000061  -0.000017  -0.000009  -0.000018  -0.000022  -0.000003
    11  C   -0.000001   0.000001   0.000000   0.000010  -0.000021  -0.000000
    12  C   -0.000032  -0.000018  -0.000034  -0.000473  -0.002988   0.000000
    13  N    0.001283   0.000557   0.001075  -0.020893  -0.022054  -0.000000
    14  C   -0.019537   0.001361   0.000664   0.001975  -0.001840   0.000000
    15  C    0.384018  -0.020962  -0.020912   0.001239   0.000529  -0.000001
    16  C   -0.020469   0.384883   0.383888  -0.019211  -0.022867   0.000000
    17  C    0.001268  -0.020478  -0.021729   0.383762   0.378767   0.000000
    18  O   -0.000091   0.000000   0.000000   0.000000   0.000000  -0.000287
    19  C    0.000000   0.000000  -0.000000   0.000000   0.000000   0.380909
    20  H   -0.000012   0.000000   0.000001   0.000000   0.000003  -0.000000
    21  H   -0.000000   0.000001   0.000000   0.000002  -0.000001   0.000000
    22  H   -0.003487  -0.000010   0.000111  -0.000052   0.001339  -0.000000
    23  H    0.000000   0.000000  -0.000000   0.000000  -0.000000   0.000064
    24  H    0.000000  -0.000000  -0.000000  -0.000000   0.000000   0.000000
    25  H   -0.000000  -0.000000  -0.000000   0.000000  -0.000000  -0.000000
    26  H   -0.000000  -0.000000  -0.000000  -0.000000   0.000001   0.000000
    27  H   -0.000000  -0.000000  -0.000000   0.000000  -0.000000   0.000000
    28  H    0.000001  -0.000001   0.000003  -0.000157   0.001511  -0.000000
    29  H    0.000001  -0.000000  -0.000001   0.000426  -0.000280  -0.000000
    30  H   -0.022885  -0.006442   0.001675  -0.000035  -0.000031   0.000001
    31  H    0.619606   0.001071  -0.005618  -0.000021  -0.000013  -0.000000
    32  H    0.001071   0.629184  -0.023252  -0.005422   0.001625  -0.000000
    33  H   -0.005618  -0.023252   0.635237   0.001156  -0.005935   0.000000
    34  H   -0.000021  -0.005422   0.001156   0.623902  -0.026803  -0.000000
    35  H   -0.000013   0.001625  -0.005935  -0.026803   0.655924  -0.000000
    36  H   -0.000000  -0.000000   0.000000  -0.000000  -0.000000   0.609794
    37  H    0.000000  -0.000000  -0.000000   0.000000  -0.000000  -0.022284
    38  H    0.000000   0.000000   0.000000  -0.000000   0.000000  -0.018460
              37         38
     1  C   -0.020594  -0.021143
     2  C   -0.005585   0.000475
     3  C    0.000059  -0.000023
     4  C   -0.000000   0.000003
     5  C   -0.000016  -0.000004
     6  C    0.001130  -0.001416
     7  C    0.000015  -0.000044
     8  O    0.000000  -0.000000
     9  C    0.000000  -0.000000
    10  C    0.000000  -0.000002
    11  C    0.000000   0.000000
    12  C   -0.000000   0.000000
    13  N    0.000000  -0.000000
    14  C   -0.000000   0.000000
    15  C    0.000000   0.000000
    16  C   -0.000000  -0.000000
    17  C   -0.000000   0.000000
    18  O    0.000061  -0.000398
    19  C    0.382696   0.380575
    20  H    0.000000   0.000000
    21  H   -0.000000  -0.000000
    22  H    0.000000  -0.000000
    23  H    0.000177   0.000075
    24  H   -0.000003   0.000000
    25  H    0.000000  -0.000000
    26  H    0.000000  -0.000000
    27  H   -0.000000  -0.000000
    28  H    0.000000  -0.000000
    29  H    0.000000   0.000000
    30  H    0.000000  -0.000000
    31  H    0.000000   0.000000
    32  H   -0.000000   0.000000
    33  H   -0.000000   0.000000
    34  H    0.000000  -0.000000
    35  H   -0.000000   0.000000
    36  H   -0.022284  -0.018460
    37  H    0.625138  -0.021642
    38  H   -0.021642   0.604250
 Mulliken charges:
               1
     1  C    0.034064
     2  C   -0.079432
     3  C   -0.048483
     4  C   -0.086196
     5  C    0.130390
     6  C   -0.065505
     7  C    0.184607
     8  O   -0.250521
     9  C    0.091576
    10  C   -0.075407
    11  C   -0.102180
    12  C   -0.015962
    13  N   -0.289539
    14  C    0.054320
    15  C   -0.098356
    16  C   -0.100749
    17  C   -0.017030
    18  O   -0.232417
    19  C   -0.177569
    20  H    0.068976
    21  H    0.062634
    22  H    0.042287
    23  H    0.057427
    24  H    0.066748
    25  H    0.069385
    26  H    0.061411
    27  H    0.061120
    28  H    0.042574
    29  H    0.063983
    30  H    0.056007
    31  H    0.065038
    32  H    0.057919
    33  H    0.053681
    34  H    0.060615
    35  H    0.043156
    36  H    0.072824
    37  H    0.060848
    38  H    0.077754
 Sum of Mulliken charges =  -0.00000
 Mulliken charges with hydrogens summed into heavy atoms:
               1
     1  C    0.034064
     2  C   -0.022005
     3  C    0.018266
     4  C   -0.016810
     5  C    0.130390
     6  C   -0.065505
     7  C    0.184607
     8  O   -0.250521
     9  C    0.154210
    10  C   -0.006431
    11  C    0.020352
    12  C    0.090595
    13  N   -0.289539
    14  C    0.096607
    15  C    0.022689
    16  C    0.010851
    17  C    0.086741
    18  O   -0.232417
    19  C    0.033857
 Electronic spatial extent (au):  <R**2>=           5128.3722
 Charge=             -0.0000 electrons
 Dipole moment (field-independent basis, Debye):
    X=             -0.8110    Y=             -0.4550    Z=             -0.1241  Tot=              0.9382
 Quadrupole moment (field-independent basis, Debye-Ang):
   XX=            -97.3427   YY=           -109.1272   ZZ=           -105.4812
   XY=              1.2814   XZ=             -2.8504   YZ=             -1.5271
 Traceless Quadrupole moment (field-independent basis, Debye-Ang):
   XX=              6.6410   YY=             -5.1435   ZZ=             -1.4975
   XY=              1.2814   XZ=             -2.8504   YZ=             -1.5271
 Octapole moment (field-independent basis, Debye-Ang**2):
  XXX=              5.8227  YYY=             -5.7373  ZZZ=              8.1229  XYY=             -2.6728
  XXY=              0.4005  XXZ=             -1.0451  XZZ=             -4.9126  YZZ=             -0.7790
  YYZ=             -6.4103  XYZ=              1.3645
 Hexadecapole moment (field-independent basis, Debye-Ang**3):
 XXXX=          -4512.1139 YYYY=          -1603.0388 ZZZZ=           -280.2360 XXXY=             -1.2692
 XXXZ=            -31.3687 YYYX=              6.6721 YYYZ=              6.1549 ZZZX=             12.8766
 ZZZY=              4.3997 XXYY=          -1002.4506 XXZZ=           -837.0845 YYZZ=           -311.4430
 XXYZ=             12.4864 YYXZ=             -5.3963 ZZXY=              2.2302
 N-N= 1.488475739044D+03 E-N=-4.872326182038D+03  KE= 8.035520128871D+02
 ******************************Gaussian NBO Version 3.1******************************
             N A T U R A L   A T O M I C   O R B I T A L   A N D
          N A T U R A L   B O N D   O R B I T A L   A N A L Y S I S
 ******************************Gaussian NBO Version 3.1******************************
       /RESON  / : Allow strongly delocalized NBO set
       /NLMO   / : Form Natural Localized Molecular Orbitals
       /NMR /    : Analyze NMR Sheilding Tensor 

 Analyzing the SCF density

 Job title: Title Card Required                                             

 Storage needed:     43472 in NPA,     53775 in NBO,    102144 in NLMO ( 104850000 available)
 GSVD:  LWork=      -13908 too small for GESVD, short by       66690 words or       66690 for optimal perf.


 NATURAL POPULATIONS:  Natural atomic orbital occupancies 
                                                          
   NAO  Atom  No  lang   Type(AO)    Occupancy      Energy
 ----------------------------------------------------------
     1    C    1  S      Cor( 1S)     1.99991     -10.98255
     2    C    1  S      Val( 2S)     1.08159      -0.19927
     3    C    1  px     Val( 2p)     0.95771       0.15198
     4    C    1  py     Val( 2p)     0.94851       0.15457
     5    C    1  pz     Val( 2p)     0.93703       0.03026

     6    C    2  S      Cor( 1S)     1.99995     -10.94604
     7    C    2  S      Val( 2S)     1.08031      -0.18469
     8    C    2  px     Val( 2p)     0.97617       0.14537
     9    C    2  py     Val( 2p)     0.97125       0.15655
    10    C    2  pz     Val( 2p)     1.04537       0.00481

    11    C    3  S      Cor( 1S)     1.99994     -10.96259
    12    C    3  S      Val( 2S)     1.08004      -0.18782
    13    C    3  px     Val( 2p)     0.98215       0.13716
    14    C    3  py     Val( 2p)     0.98295       0.14817
    15    C    3  pz     Val( 2p)     0.96297       0.01753

    16    C    4  S      Cor( 1S)     1.99994     -10.94731
    17    C    4  S      Val( 2S)     1.07729      -0.18428
    18    C    4  px     Val( 2p)     0.97948       0.14249
    19    C    4  py     Val( 2p)     0.98979       0.14593
    20    C    4  pz     Val( 2p)     1.04842       0.00108

    21    C    5  S      Cor( 1S)     1.99978     -11.03035
    22    C    5  S      Val( 2S)     1.06134      -0.21383
    23    C    5  px     Val( 2p)     0.88102       0.13500
    24    C    5  py     Val( 2p)     0.91704       0.16214
    25    C    5  pz     Val( 2p)     0.95412      -0.00038

    26    C    6  S      Cor( 1S)     1.99991     -10.96040
    27    C    6  S      Val( 2S)     1.08873      -0.20783
    28    C    6  px     Val( 2p)     0.98397       0.12837
    29    C    6  py     Val( 2p)     0.96959       0.14432
    30    C    6  pz     Val( 2p)     1.08389      -0.00660

    31    C    7  S      Cor( 1S)     1.99996     -11.05459
    32    C    7  S      Val( 2S)     1.07885      -0.24305
    33    C    7  px     Val( 2p)     0.93622       0.10575
    34    C    7  py     Val( 2p)     0.85084       0.17082
    35    C    7  pz     Val( 2p)     0.89159       0.01053

    36    O    8  S      Cor( 1S)     1.99999     -20.20493
    37    O    8  S      Val( 2S)     1.73561      -1.01932
    38    O    8  px     Val( 2p)     1.12585      -0.04430
    39    O    8  py     Val( 2p)     1.55396      -0.24362
    40    O    8  pz     Val( 2p)     1.84128      -0.35705

    41    C    9  S      Cor( 1S)     1.99988     -11.05742
    42    C    9  S      Val( 2S)     1.08679      -0.23782
    43    C    9  px     Val( 2p)     0.83401       0.09651
    44    C    9  py     Val( 2p)     0.93278       0.07939
    45    C    9  pz     Val( 2p)     0.98487       0.07035

    46    C   10  S      Cor( 1S)     1.99996     -11.00433
    47    C   10  S      Val( 2S)     1.10362      -0.23190
    48    C   10  px     Val( 2p)     0.98477       0.07468
    49    C   10  py     Val( 2p)     0.99395       0.06633
    50    C   10  pz     Val( 2p)     1.01217       0.06575

    51    C   11  S      Cor( 1S)     1.99995     -10.98824
    52    C   11  S      Val( 2S)     1.09203      -0.20806
    53    C   11  px     Val( 2p)     0.96377       0.08823
    54    C   11  py     Val( 2p)     0.99273       0.08091
    55    C   11  pz     Val( 2p)     1.03163       0.07581

    56    C   12  S      Cor( 1S)     1.99994     -11.01645
    57    C   12  S      Val( 2S)     1.07057      -0.19847
    58    C   12  px     Val( 2p)     0.98936       0.07184
    59    C   12  py     Val( 2p)     0.90507       0.10020
    60    C   12  pz     Val( 2p)     0.99771       0.08244

    61    N   13  S      Cor( 1S)     1.99999     -15.24406
    62    N   13  S      Val( 2S)     1.43383      -0.59424
    63    N   13  px     Val( 2p)     1.18889      -0.02179
    64    N   13  py     Val( 2p)     1.04624       0.04261
    65    N   13  pz     Val( 2p)     1.60858      -0.18427

    66    C   14  S      Cor( 1S)     1.99994     -11.02489
    67    C   14  S      Val( 2S)     1.08156      -0.21350
    68    C   14  px     Val( 2p)     0.93003       0.09280
    69    C   14  py     Val( 2p)     0.93147       0.08768
    70    C   14  pz     Val( 2p)     0.95399       0.10398

    71    C   15  S      Cor( 1S)     1.99996     -10.97748
    72    C   15  S      Val( 2S)     1.08569      -0.19265
    73    C   15  px     Val( 2p)     0.98348       0.09001
    74    C   15  py     Val( 2p)     0.99322       0.09469
    75    C   15  pz     Val( 2p)     1.00550       0.09028

    76    C   16  S      Cor( 1S)     1.99997     -10.97870
    77    C   16  S      Val( 2S)     1.08459      -0.19351
    78    C   16  px     Val( 2p)     0.97891       0.09042
    79    C   16  py     Val( 2p)     0.97993       0.09362
    80    C   16  pz     Val( 2p)     1.02146       0.08801

    81    C   17  S      Cor( 1S)     1.99995     -11.00964
    82    C   17  S      Val( 2S)     1.07271      -0.19504
    83    C   17  px     Val( 2p)     0.91292       0.11258
    84    C   17  py     Val( 2p)     0.96099       0.07533
    85    C   17  pz     Val( 2p)     1.01639       0.07890

    86    O   18  S      Cor( 1S)     1.99999     -20.11019
    87    O   18  S      Val( 2S)     1.80566      -1.05898
    88    O   18  px     Val( 2p)     1.86491      -0.33273
    89    O   18  py     Val( 2p)     1.35513      -0.11663
    90    O   18  pz     Val( 2p)     1.21793      -0.11898

    91    C   19  S      Cor( 1S)     1.99997     -10.97495
    92    C   19  S      Val( 2S)     1.07792      -0.18526
    93    C   19  px     Val( 2p)     1.04215       0.07305
    94    C   19  py     Val( 2p)     0.98250       0.08630
    95    C   19  pz     Val( 2p)     1.04374       0.07339

    96    H   20  S      Val( 1S)     0.95175       0.05190

    97    H   21  S      Val( 1S)     0.97505       0.04494

    98    H   22  S      Val( 1S)     0.98940       0.04886

    99    H   23  S      Val( 1S)     0.96794       0.06793

   100    H   24  S      Val( 1S)     0.96139       0.06246

   101    H   25  S      Val( 1S)     0.95550       0.07466

   102    H   26  S      Val( 1S)     0.96037       0.06724

   103    H   27  S      Val( 1S)     0.96090       0.06944

   104    H   28  S      Val( 1S)     0.98521       0.05266

   105    H   29  S      Val( 1S)     0.96214       0.05991

   106    H   30  S      Val( 1S)     0.96473       0.07137

   107    H   31  S      Val( 1S)     0.95703       0.08071

   108    H   32  S      Val( 1S)     0.96308       0.07204

   109    H   33  S      Val( 1S)     0.96727       0.06829

   110    H   34  S      Val( 1S)     0.96607       0.06409

   111    H   35  S      Val( 1S)     0.98437       0.05505

   112    H   36  S      Val( 1S)     0.94344       0.08133

   113    H   37  S      Val( 1S)     0.95573       0.07455

   114    H   38  S      Val( 1S)     0.93864       0.08462


 Summary of Natural Population Analysis:                  
                                                          
                                       Natural Population 
                Natural  -----------------------------------------------
    Atom  No    Charge         Core      Valence    Rydberg      Total
 -----------------------------------------------------------------------
      C    1    0.07525      1.99991     3.92484    0.00000     5.92475
      C    2   -0.07304      1.99995     4.07309    0.00000     6.07304
      C    3   -0.00805      1.99994     4.00811    0.00000     6.00805
      C    4   -0.09492      1.99994     4.09498    0.00000     6.09492
      C    5    0.18670      1.99978     3.81352    0.00000     5.81330
      C    6   -0.12610      1.99991     4.12619    0.00000     6.12610
      C    7    0.24254      1.99996     3.75750    0.00000     5.75746
      O    8   -0.25669      1.99999     6.25670    0.00000     8.25669
      C    9    0.16167      1.99988     3.83844    0.00000     5.83833
      C   10   -0.09447      1.99996     4.09451    0.00000     6.09447
      C   11   -0.08011      1.99995     4.08016    0.00000     6.08011
      C   12    0.03735      1.99994     3.96271    0.00000     5.96265
      N   13   -0.27755      1.99999     5.27756    0.00000     7.27755
      C   14    0.10301      1.99994     3.89705    0.00000     5.89699
      C   15   -0.06785      1.99996     4.06789    0.00000     6.06785
      C   16   -0.06486      1.99997     4.06489    0.00000     6.06486
      C   17    0.03704      1.99995     3.96301    0.00000     5.96296
      O   18   -0.24362      1.99999     6.24363    0.00000     8.24362
      C   19   -0.14629      1.99997     4.14632    0.00000     6.14629
      H   20    0.04825      0.00000     0.95175    0.00000     0.95175
      H   21    0.02495      0.00000     0.97505    0.00000     0.97505
      H   22    0.01060      0.00000     0.98940    0.00000     0.98940
      H   23    0.03206      0.00000     0.96794    0.00000     0.96794
      H   24    0.03861      0.00000     0.96139    0.00000     0.96139
      H   25    0.04450      0.00000     0.95550    0.00000     0.95550
      H   26    0.03963      0.00000     0.96037    0.00000     0.96037
      H   27    0.03910      0.00000     0.96090    0.00000     0.96090
      H   28    0.01479      0.00000     0.98521    0.00000     0.98521
      H   29    0.03786      0.00000     0.96214    0.00000     0.96214
      H   30    0.03527      0.00000     0.96473    0.00000     0.96473
      H   31    0.04297      0.00000     0.95703    0.00000     0.95703
      H   32    0.03692      0.00000     0.96308    0.00000     0.96308
      H   33    0.03273      0.00000     0.96727    0.00000     0.96727
      H   34    0.03393      0.00000     0.96607    0.00000     0.96607
      H   35    0.01563      0.00000     0.98437    0.00000     0.98437
      H   36    0.05656      0.00000     0.94344    0.00000     0.94344
      H   37    0.04427      0.00000     0.95573    0.00000     0.95573
      H   38    0.06136      0.00000     0.93864    0.00000     0.93864
 =======================================================================
   * Total *   -0.00000     37.99889   100.00111    0.00000   138.00000

                                 Natural Population      
 --------------------------------------------------------
   Core                      37.99889 ( 99.9971% of  38)
   Valence                  100.00111 (100.0011% of 100)
   Natural Minimal Basis    138.00000 (100.0000% of 138)
   Natural Rydberg Basis      0.00000 (  0.0000% of 138)
 --------------------------------------------------------

    Atom  No          Natural Electron Configuration
 ----------------------------------------------------------------------------
      C    1      [core]2S( 1.08)2p( 2.84)
      C    2      [core]2S( 1.08)2p( 2.99)
      C    3      [core]2S( 1.08)2p( 2.93)
      C    4      [core]2S( 1.08)2p( 3.02)
      C    5      [core]2S( 1.06)2p( 2.75)
      C    6      [core]2S( 1.09)2p( 3.04)
      C    7      [core]2S( 1.08)2p( 2.68)
      O    8      [core]2S( 1.74)2p( 4.52)
      C    9      [core]2S( 1.09)2p( 2.75)
      C   10      [core]2S( 1.10)2p( 2.99)
      C   11      [core]2S( 1.09)2p( 2.99)
      C   12      [core]2S( 1.07)2p( 2.89)
      N   13      [core]2S( 1.43)2p( 3.84)
      C   14      [core]2S( 1.08)2p( 2.82)
      C   15      [core]2S( 1.09)2p( 2.98)
      C   16      [core]2S( 1.08)2p( 2.98)
      C   17      [core]2S( 1.07)2p( 2.89)
      O   18      [core]2S( 1.81)2p( 4.44)
      C   19      [core]2S( 1.08)2p( 3.07)
      H   20            1S( 0.95)
      H   21            1S( 0.98)
      H   22            1S( 0.99)
      H   23            1S( 0.97)
      H   24            1S( 0.96)
      H   25            1S( 0.96)
      H   26            1S( 0.96)
      H   27            1S( 0.96)
      H   28            1S( 0.99)
      H   29            1S( 0.96)
      H   30            1S( 0.96)
      H   31            1S( 0.96)
      H   32            1S( 0.96)
      H   33            1S( 0.97)
      H   34            1S( 0.97)
      H   35            1S( 0.98)
      H   36            1S( 0.94)
      H   37            1S( 0.96)
      H   38            1S( 0.94)


 NATURAL BOND ORBITAL ANALYSIS:

                       Occupancies       Lewis Structure    Low   High
           Occ.    -------------------  -----------------   occ   occ
  Cycle   Thresh.   Lewis   Non-Lewis     CR  BD  3C  LP    (L)   (NL)   Dev
 =============================================================================
   1(1)    1.90   134.42208   3.57792     19  43   0   7     3      3    0.45
   2(2)    1.90   134.42208   3.57792     19  43   0   7     3      3    0.45
   3(1)    1.80   134.35480   3.64520     19  42   0   8     3      3    0.45
   4(2)    1.80   134.35480   3.64520     19  42   0   8     3      3    0.45
   5(1)    1.70   134.35480   3.64520     19  42   0   8     3      3    0.45
   6(2)    1.70   134.35480   3.64520     19  42   0   8     3      3    0.45
   7(1)    1.60   135.53116   2.46884     19  44   0   6     1      3    0.43
   8(2)    1.60   136.11222   1.88778     19  45   0   5     0      3    0.45
   9(3)    1.60   136.13771   1.86229     19  45   0   5     0      3    0.43
  10(4)    1.60   136.11222   1.88778     19  45   0   5     0      3    0.45
  11(5)    1.60   136.13771   1.86229     19  45   0   5     0      3    0.43
  12(1)    1.50   136.13771   1.86229     19  45   0   5     0      3    0.43
  13(2)    1.50   136.11222   1.88778     19  45   0   5     0      3    0.45
  14(3)    1.50   136.13771   1.86229     19  45   0   5     0      3    0.43
  15(1)    1.60   136.13771   1.86229     19  45   0   5     0      3    0.43
 -----------------------------------------------------------------------------

 Structure accepted: RESONANCE keyword permits strongly delocalized structure

 --------------------------------------------------------
   Core                     37.99888 ( 99.997% of  38)
   Valence Lewis            98.13883 ( 98.139% of 100)
  ==================       ============================
   Total Lewis             136.13771 ( 98.651% of 138)
  -----------------------------------------------------
   Valence non-Lewis         1.86229 (  1.349% of 138)
   Rydberg non-Lewis         0.00000 (  0.000% of 138)
  ==================       ============================
   Total non-Lewis           1.86229 (  1.349% of 138)
 --------------------------------------------------------


       (Occupancy)   Bond orbital/ Coefficients/ Hybrids
 ---------------------------------------------------------------------------------
     1. (1.98530) BD ( 1) C   1 - C   2  
                ( 50.01%)   0.7071* C   1 s( 33.73%)p 1.96( 66.27%)
                                            0.0000  0.5808  0.6922 -0.3715 -0.2135
                ( 49.99%)   0.7071* C   2 s( 34.47%)p 1.90( 65.53%)
                                            0.0001  0.5871 -0.6883  0.3790  0.1948
     2. (1.65669) BD ( 2) C   1 - C   2  
                ( 45.65%)   0.6757* C   1 s(  0.00%)p 1.00(100.00%)
                                           -0.0000  0.0002  0.2644 -0.0602  0.9625
                ( 54.35%)   0.7372* C   2 s(  0.00%)p 1.00(100.00%)
                                            0.0000  0.0024  0.2476 -0.0514  0.9675
     3. (1.98118) BD ( 1) C   1 - C   6  
                ( 49.48%)   0.7034* C   1 s( 34.61%)p 1.89( 65.39%)
                                            0.0001  0.5883 -0.6714 -0.4221  0.1579
                ( 50.52%)   0.7107* C   6 s( 35.61%)p 1.81( 64.39%)
                                            0.0000  0.5968  0.6406  0.4619 -0.1420
     4. (1.98739) BD ( 1) C   1 - C  19  
                ( 50.14%)   0.7081* C   1 s( 31.66%)p 2.16( 68.34%)
                                           -0.0000  0.5627 -0.0125  0.8248  0.0549
                ( 49.86%)   0.7061* C  19 s( 25.58%)p 2.91( 74.42%)
                                            0.0001  0.5058 -0.0096 -0.8609 -0.0547
     5. (1.98976) BD ( 1) C   2 - C   3  
                ( 49.57%)   0.7041* C   2 s( 34.20%)p 1.92( 65.80%)
                                            0.0001  0.5848  0.0384 -0.8084 -0.0542
                ( 50.43%)   0.7101* C   3 s( 34.33%)p 1.91( 65.67%)
                                            0.0000  0.5859 -0.0251  0.8083  0.0511
     6. (1.98879) BD ( 1) C   2 - H  23  
                ( 51.63%)   0.7185* C   2 s( 31.33%)p 2.19( 68.67%)
                                           -0.0001  0.5597  0.6808  0.4474 -0.1518
[...]
 NLMO      Total    Paramagnetic  Diamagnetic   Paramagnetic  Diamagnetic
    3      -0.4868       -0.5829       0.0961        -1.1417       0.6548
    4       0.1387       -1.0261       1.1649        -0.8419       0.9807
    8       0.3904       -0.2140       0.6043        -0.6498       1.0402
   13       1.0320        0.0186       1.0134        -0.4247       1.4567
   15     -10.6264      -10.7594       0.1331       -11.3770       0.7506
   16     -10.3075      -10.7055       0.3980       -11.0277       0.7202
   17    -117.4559     -127.1310       9.6751      -126.8835       9.4276
   18     -26.3176      -51.7535      25.4359       -51.3802      25.0626
   20      -1.2791       -1.4513       0.1722        -1.3411       0.0620
   23      -0.2752       -0.3843       0.1091        -1.1898       0.9146
   37      -0.2228       -1.1337       0.9109        -1.0374       0.8145
   43      -0.3894       -1.5608       1.1714        -1.3371       0.9477
   45      -0.3252       -1.7945       1.4692        -1.3006       0.9754
   63     271.9258       -0.0056     271.9314        -0.0055     271.9313
   68     -34.5649      -69.7104      35.1456       -69.6124      35.0475
   69    -416.8182     -453.8774      37.0592      -456.4662      39.6480
 Sum     -345.5823     -732.0720     386.4897      -736.0166     390.4343

 Contributions to Isotropic shielding for atom   19 (   218.1959 ppm):
                         Standard Origin              Atomic Origin
 NLMO      Total    Paramagnetic  Diamagnetic   Paramagnetic  Diamagnetic
    1      -1.9190       -1.3588      -0.5601        -2.4039       0.4850
    2      -0.8793       -0.7611      -0.1182        -2.5314       1.6521
    3      -1.0181       -1.4983       0.4803        -1.3170       0.2989
    4       3.5299      -10.8091      14.3390        -3.4364       6.9663
    6      -0.6475       -1.6062       0.9588        -1.6840       1.0365
    8       0.8444       -0.3277       1.1721        -0.3386       1.1829
   15      -0.3676        0.0508      -0.4183        -1.2346       0.8670
   17      -0.4317       -0.2802      -0.1514        -1.1639       0.7323
   18       0.2563        0.2233       0.0330        -1.2294       1.4856
   43       7.0780       -7.3706      14.4487        -4.3366      11.4147
   44       4.1587        4.8044      -0.6457        -7.0191      11.1778
   45       7.2214       -2.5819       9.8034        -4.2290      11.4504
   64     200.0788       -0.0032     200.0819         0.0032     200.0756
 Sum      217.9045      -21.5189     239.4233       -30.9207     248.8251

 Contributions to Isotropic shielding for atom   20 (    31.0468 ppm):
                         Standard Origin              Atomic Origin
 NLMO      Total    Paramagnetic  Diamagnetic   Paramagnetic  Diamagnetic
   13       0.1268       -0.4986       0.6254        -1.1369       1.2638
   16       2.0015        1.7106       0.2909         1.0417       0.9599
   18       0.0272       -0.1941       0.2213        -1.0747       1.1019
   19       0.0474       -0.3380       0.3854        -1.0997       1.1471
   20       1.2897        1.0155       0.2742         0.4958       0.7938
   21      -0.1700       -0.3091       0.1392        -1.0211       0.8512
   23       1.1265        1.3980      -0.2716         0.1074       1.0191
   24      25.7839       -0.1008      25.8847         0.2947      25.4892
   34      -0.0853       -1.0674       0.9821        -1.2244       1.1391
 Sum       30.1478        1.6162      28.5316        -3.6172      33.7650

 Contributions to Isotropic shielding for atom   21 (    30.8886 ppm):
                         Standard Origin              Atomic Origin
 NLMO      Total    Paramagnetic  Diamagnetic   Paramagnetic  Diamagnetic
   13       0.1085       -0.6586       0.7671        -1.1932       1.3017
   19       0.8098        0.1648       0.6450        -0.5362       1.3460
   20       1.0344       -0.3928       1.4272         0.2977       0.7367
   21       0.5081        0.6496      -0.1415        -0.5884       1.0965
   22      26.0748        0.5066      25.5682         0.7151      25.3597
   27       0.0917       -1.1415       1.2332        -0.9662       1.0579
   31       0.2249       -0.7877       1.0126        -0.7898       1.0147
   67      -0.7888        0.2489      -1.0377         0.2653      -1.0541
 Sum       28.0635       -1.4106      29.4741        -2.7956      30.8591

 Contributions to Isotropic shielding for atom   22 (    31.5916 ppm):
                         Standard Origin              Atomic Origin
 NLMO      Total    Paramagnetic  Diamagnetic   Paramagnetic  Diamagnetic
   17      -0.2906       -0.3965       0.1060        -1.0549       0.7644
   18       0.1447       -0.1938       0.3385        -1.1155       1.2602
   23       0.9852        0.1037       0.8815        -0.1354       1.1206
   24      -0.1461        0.1225      -0.2686        -1.3171       1.1710
   31       0.4289        1.8541      -1.4251        -0.0927       0.5216
   33       0.5856        1.4614      -0.8758        -0.3014       0.8871
   34      26.6659       -0.0644      26.7303         0.7374      25.9286
   38       0.2256       -1.2277       1.4533        -0.6798       0.9054
   42       0.1664       -1.1774       1.3438        -0.6220       0.7884
 Sum       28.7657        0.4819      28.2839        -4.5815      33.3472

 Contributions to Isotropic shielding for atom   23 (    25.8630 ppm):
                         Standard Origin              Atomic Origin
 NLMO      Total    Paramagnetic  Diamagnetic   Paramagnetic  Diamagnetic
    1      -1.3932       -2.7623       1.3691        -1.9759       0.5827
    2       0.8399        1.5042      -0.6642        -2.5139       3.3538
    4      -0.6943        0.7599      -1.4542        -1.7695       1.0752
    5      -2.0399       -1.2169      -0.8230        -2.7484       0.7085
    6      27.0251        0.9548      26.0703         1.5445      25.4806
    9      -0.0776       -0.2017       0.1241        -1.1818       1.1042
   13       0.5434        0.8708      -0.3275        -0.7122       1.2555
   44      -0.1277       -1.1918       1.0641        -0.9167       0.7889
 Sum       24.0758       -1.2830      25.3588       -10.2738      34.3496

 Contributions to Isotropic shielding for atom   24 (    25.2911 ppm):
                         Standard Origin              Atomic Origin
 NLMO      Total    Paramagnetic  Diamagnetic   Paramagnetic  Diamagnetic
    2       1.2777        0.8426       0.4351         0.2143       1.0634
    5      -2.0562       -1.9609      -0.0952        -2.7974       0.7412
    6      -0.1084        0.1137      -0.2221        -1.2378       1.1294
    7      -1.8894       -2.6043       0.7149        -2.6123       0.7229
    8       0.4481        1.3625      -0.9144        -2.3789       2.8269
    9      26.9043        1.0993      25.8049         1.6023      25.3020
   11      -0.1117        0.6240      -0.7356        -1.2180       1.1064
   13       0.4974        0.7747      -0.2773        -0.8796       1.3770
 Sum       24.9618        0.2516      24.7103        -9.3073      34.2691

 Contributions to Isotropic shielding for atom   25 (    25.6582 ppm):
                         Standard Origin              Atomic Origin
 NLMO      Total    Paramagnetic  Diamagnetic   Paramagnetic  Diamagnetic
    2       1.2531       -0.3995       1.6526         0.0217       1.2314
    7      -1.8158       -0.9810      -0.8349        -2.4920       0.6762
    8       0.1736        0.1146       0.0590        -3.2225       3.3961
    9      -0.0520       -0.9499       0.8979        -1.1483       1.0963
   10      -0.9544       -2.5822       1.6278        -1.5127       0.5583
   11      26.5307        1.0769      25.4538         1.3198      25.2109
   14      -0.5115        0.4827      -0.9942        -2.1042       1.5927
   65      -0.1844       -0.4528       0.2684         0.8201      -1.0046
 Sum       24.4392       -3.6912      28.1304        -8.3181      32.7573

 Contributions to Isotropic shielding for atom   26 (    31.5425 ppm):
                         Standard Origin              Atomic Origin
 NLMO      Total    Paramagnetic  Diamagnetic   Paramagnetic  Diamagnetic
   19      -0.0017        0.5033      -0.5050        -1.6748       1.6732
   21       1.5802       -0.1312       1.7114         0.7264       0.8537
   25       0.8620        1.5930      -0.7310        -0.1438       1.0059
   26      26.1325        0.0683      26.0642         0.4561      25.6764
   27       2.0362        2.0394      -0.0032         0.1879       1.8483
   29      -0.0147       -0.8189       0.8042        -1.1308       1.1161
 Sum       30.5945        3.2538      27.3407        -1.5791      32.1736

 Contributions to Isotropic shielding for atom   27 (    31.1610 ppm):
                         Standard Origin              Atomic Origin
 NLMO      Total    Paramagnetic  Diamagnetic   Paramagnetic  Diamagnetic
   19      -0.0060        0.4977      -0.5037        -1.3606       1.3545
   21       1.4075        0.0438       1.3637         0.3875       1.0200
   22      -0.0452        0.3299      -0.3751        -1.1130       1.0678
   25       0.8955        1.8103      -0.9147        -0.1233       1.0188
   26       1.9697        1.9163       0.0534         0.0910       1.8788
   27      26.1310       -0.0838      26.2148         0.4310      25.7000
   30      -0.1018       -0.9999       0.8981        -1.2991       1.1973
 Sum       30.2507        3.5143      26.7364        -2.9865      33.2372

 Contributions to Isotropic shielding for atom   28 (    32.2623 ppm):
                         Standard Origin              Atomic Origin
 NLMO      Total    Paramagnetic  Diamagnetic   Paramagnetic  Diamagnetic
   25       1.2066        0.0705       1.1361         0.2698       0.9368
   26      -0.1128        0.0353      -0.1481        -1.2823       1.1694
   28       1.0872       -0.0587       1.1459         0.3841       0.7031
   29      26.7567        0.3284      26.4283         0.8034      25.9533
   30       1.6716        2.4953      -0.8237        -0.1792       1.8507
   42       0.1235       -1.0178       1.1413        -0.7082       0.8316
 Sum       30.7327        1.8530      28.8797        -0.7123      31.4450

 Contributions to Isotropic shielding for atom   29 (    31.5373 ppm):
                         Standard Origin              Atomic Origin
 NLMO      Total    Paramagnetic  Diamagnetic   Paramagnetic  Diamagnetic
   25       0.9871        0.8750       0.1121        -0.0649       1.0520
   27      -0.1328        0.3691      -0.5019        -1.2991       1.1664
   28       0.7666        0.7532       0.0134        -0.3711       1.1377
   29       1.4208        1.9790      -0.5582        -0.3064       1.7272
   30      26.2973        0.0607      26.2366         0.7471      25.5502
   32      -0.2939        0.7714      -1.0653        -1.1673       0.8734
 Sum       29.0451        4.8084      24.2367        -2.4618      31.5069

 Contributions to Isotropic shielding for atom   30 (    32.6361 ppm):
                         Standard Origin              Atomic Origin
 NLMO      Total    Paramagnetic  Diamagnetic   Paramagnetic  Diamagnetic
   18      -0.1565       -0.2881       0.1316        -1.2593       1.1029
   31       0.0343       -0.0665       0.1008        -0.9809       1.0152
   33       1.7108       -0.8691       2.5799         1.0861       0.6246
   35       0.7805        1.4739      -0.6934        -0.0531       0.8335
   36      26.1049        0.3329      25.7720         0.3363      25.7685
   37       2.0752        0.6366       1.4386         0.2925       1.7827
   38       0.3547       -0.8783       1.2330        -0.0162       0.3710
   39       0.0149       -1.9078       1.9227        -1.1442       1.1591
 Sum       30.9187       -1.5664      32.4852        -1.7388      32.6576

 Contributions to Isotropic shielding for atom   31 (    31.8209 ppm):
                         Standard Origin              Atomic Origin
 NLMO      Total    Paramagnetic  Diamagnetic   Paramagnetic  Diamagnetic
   16      -0.1441        0.0257      -0.1698        -1.0204       0.8763
   18       0.0160       -0.3330       0.3490        -1.0995       1.1155
   33       1.4465       -0.0241       1.4705         0.7953       0.6512
   35       0.4938        2.4573      -1.9635        -0.3856       0.8794
   36       2.2025        0.3024       1.9001         0.4282       1.7743
   37      26.0466        0.1162      25.9304         0.4532      25.5935
   40       0.0580       -1.4510       1.5090        -1.0679       1.1258
 Sum       30.1194        1.0936      29.0257        -1.8968      32.0161

 Contributions to Isotropic shielding for atom   32 (    31.8938 ppm):
                         Standard Origin              Atomic Origin
 NLMO      Total    Paramagnetic  Diamagnetic   Paramagnetic  Diamagnetic
   35       1.5221       -0.9664       2.4885         0.5808       0.9412
   36      -0.1542        0.8294      -0.9836        -1.3355       1.1813
   39      26.2504        0.0362      26.2142         0.5074      25.7430
   40       1.8221        2.7866      -0.9645         0.0491       1.7730
   41      -0.0323       -0.4171       0.3848        -1.1817       1.1494
 Sum       29.4080        2.2687      27.1393        -1.3800      30.7879

 Contributions to Isotropic shielding for atom   33 (    32.0643 ppm):
                         Standard Origin              Atomic Origin
 NLMO      Total    Paramagnetic  Diamagnetic   Paramagnetic  Diamagnetic
   31      -0.2006        0.3623      -0.5629        -1.1222       0.9216
   32       0.2967       -0.8310       1.1276         0.0143       0.2824
   35       1.4196       -0.2918       1.7114         0.5254       0.8942
   37      -0.0671        0.9171      -0.9842        -1.1667       1.0996
   38       0.5880        1.6177      -1.0297        -0.2154       0.8035
   39       1.9493        2.5870      -0.6378         0.1460       1.8033
   40      26.4355       -0.1522      26.5877         0.5726      25.8629
   42      -0.0822       -0.2203       0.1381        -1.2091       1.1269
 Sum       30.3392        3.9889      26.3502        -2.4552      32.7943

 Contributions to Isotropic shielding for atom   34 (    31.7117 ppm):
                         Standard Origin              Atomic Origin
 NLMO      Total    Paramagnetic  Diamagnetic   Paramagnetic  Diamagnetic
   28      -0.2107        0.8791      -1.0898        -0.7984       0.5876
   32       1.3185       -0.6468       1.9653         0.2288       1.0896
   38       0.6839        1.0015      -0.3176        -0.2036       0.8875
   39      -0.0103       -0.0152       0.0049        -1.1294       1.1191
   41      26.3158        0.2649      26.0509         0.7451      25.5708
   42       1.2733        2.1716      -0.8983        -0.4339       1.7071
 Sum       29.3705        3.6551      25.7154        -1.5913      30.9618

 Contributions to Isotropic shielding for atom   35 (    32.3609 ppm):
                         Standard Origin              Atomic Origin
 NLMO      Total    Paramagnetic  Diamagnetic   Paramagnetic  Diamagnetic
   28      -0.3782        0.8693      -1.2475        -1.0453       0.6671
   32       1.4302       -1.1106       2.5409         0.8503       0.5800
   40      -0.0308       -0.2148       0.1840        -1.1725       1.1417
   41       1.6019        2.5312      -0.9293        -0.2511       1.8531
   42      26.8366        0.3449      26.4917         0.9091      25.9275
 Sum       29.4598        2.4199      27.0398        -0.7096      30.1694

 Contributions to Isotropic shielding for atom   36 (    31.1712 ppm):
                         Standard Origin              Atomic Origin
 NLMO      Total    Paramagnetic  Diamagnetic   Paramagnetic  Diamagnetic
    2      -0.7020       -0.6025      -0.0995        -1.5608       0.8589
    4       1.8779       -1.0718       2.9497         1.0142       0.8637
    8       0.5419       -0.2652       0.8071        -0.5585       1.1004
   15      -0.2602        0.1867      -0.4469        -1.1827       0.9225
   18       0.1054        0.0887       0.0167        -1.2517       1.3571
   43      25.7612        0.3156      25.4456         0.3384      25.4228
   44       1.8404        2.0233      -0.1829        -0.0593       1.8997
   45       2.1807        0.4004       1.7802         0.3452       1.8355
 Sum       31.3453        1.0752      30.2701        -2.9151      34.2604

 Contributions to Isotropic shielding for atom   37 (    30.9893 ppm):
                         Standard Origin              Atomic Origin
 NLMO      Total    Paramagnetic  Diamagnetic   Paramagnetic  Diamagnetic
    1      -0.9733        0.1585      -1.1318        -1.8776       0.9043
    2      -0.7130        0.0083      -0.7213        -2.3156       1.6026
    4       1.0239        0.8992       0.1247         0.2571       0.7668
    6      -0.0107       -1.4653       1.4546        -0.9489       0.9383
   18       0.0755        0.0914      -0.0159        -0.9405       1.0160
   43       2.0432        1.6804       0.3628         0.0620       1.9812
   44      26.2636       -0.1241      26.3877         0.5174      25.7462
   45       2.1436        2.5934      -0.4498         0.1799       1.9638
 Sum       29.8529        3.8419      26.0110        -5.0662      34.9192

 Contributions to Isotropic shielding for atom   38 (    30.7633 ppm):
                         Standard Origin              Atomic Origin
 NLMO      Total    Paramagnetic  Diamagnetic   Paramagnetic  Diamagnetic
    2      -0.8966       -0.4295      -0.4671        -1.8585       0.9619
    4       1.7794       -0.1600       1.9394         0.9014       0.8780
    8       0.5996       -0.1719       0.7715        -0.4685       1.0681
   15      -0.3073        0.1320      -0.4393        -1.2136       0.9063
   18       0.1429        0.2264      -0.0836        -1.1399       1.2828
   43       2.2616        0.2093       2.0523         0.4676       1.7939
   44       1.7803        2.7201      -0.9398        -0.0760       1.8563
   45      25.6602        0.1990      25.4611         0.3522      25.3080
 Sum       31.0200        2.7255      28.2945        -3.0353      34.0553
 
 1\1\GINC-GNOSIE-MM\SP\RHF\STO-3G\C16H19N1O2\MBENIDD\18-May-2026\0\\# n
 mr=giao hf/sto-3g pop=nbo\\Title Card Required\\0,1\C,0,0.,0.,0.\C,0,1
 .4075,0.,0.\C,0,2.1282,1.194,0.\C,0,1.4537,2.4096,0.0125\C,0,0.0596,2.
 4307,0.0302\C,0,-0.6766,1.2365,-0.0037\C,0,-2.154,1.3481,-0.0986\O,0,-
 0.5086,3.679,0.0538\C,0,-1.7762,3.6676,0.7194\C,0,-2.7475,2.7338,0.007
 4\C,0,-2.3215,5.11,0.7282\C,0,-3.8225,5.1861,1.0424\N,0,-4.2349,3.9212
 ,1.6116\C,0,-4.1372,2.8045,0.6552\C,0,-4.6275,1.6843,1.5619\C,0,-5.752
 3,2.344,2.3727\C,0,-5.5747,3.8495,2.1692\O,0,-2.8514,0.3683,-0.3493\C,
 0,-0.7089,-1.327,-0.0149\H,0,-2.8368,3.082,-1.0333\H,0,-1.6145,3.349,1
 .7611\H,0,-4.8725,2.9396,-0.153\H,0,1.9558,-0.9409,-0.0073\H,0,3.2152,
 1.1742,-0.007\H,0,2.0119,3.3422,0.0188\H,0,-2.1254,5.5961,-0.2361\H,0,
 -1.7532,5.6871,1.4692\H,0,-4.39,5.4174,0.1324\H,0,-3.9959,6.0081,1.746
 6\H,0,-3.8371,1.3379,2.2394\H,0,-5.0053,0.8225,1.0034\H,0,-5.6685,2.06
 61,3.429\H,0,-6.7357,2.0216,2.0136\H,0,-5.6606,4.3953,3.1136\H,0,-6.32
 96,4.2311,1.4711\H,0,-1.4322,-1.3877,0.8044\H,0,-0.0068,-2.1565,0.1252
 \H,0,-1.2095,-1.4829,-0.9754\\Version=EM64L-G16RevB.01\State=1-A\HF=-8
 11.0502827\RMSD=9.590e-09\Dipole=-0.1758461,0.3018686,0.1191856\Quadru
 pole=2.5561869,-0.8745404,-1.6816465,-4.5852942,0.019094,-0.8482233\PG
 =C01 [X(C16H19N1O2)]\\@


 IT IS A SIMPLE TASK TO MAKE THINGS COMPLEX,
 BUT A COMPLEX TASK TO MAKE THEM SIMPLE.
 Job cpu time:       0 days  0 hours  3 minutes 35.2 seconds.
 Elapsed time:       0 days  0 hours  1 minutes 55.6 seconds.
 File lengths (MBytes):  RWF=     14 Int=      0 D2E=      0 Chk=      2 Scr=      1
 Normal termination of Gaussian 16 at Mon May 18 12:13:36 2026.
