 Entering Gaussian System, Link 0=g16
 Input=2_isoelaeocarpine_c_5.gjf
 Output=2_isoelaeocarpine_c_5.log
 Initial command:
 /opt/gaussian/g16/l1.exe "/home/mbenidd/Bureau/Elaeocarpines/HF_NMR/Isoelaeocarpine/2_isoelaeocarpine_c_5/Gau-13068.inp" -scrdir="/home/mbenidd/Bureau/Elaeocarpines/HF_NMR/Isoelaeocarpine/2_isoelaeocarpine_c_5/"
 Entering Link 1 = /opt/gaussian/g16/l1.exe PID=     13070.
  
 Copyright (c) 1988-2017, Gaussian, Inc.  All Rights Reserved.
  
 This is part of the Gaussian(R) 16 program.  It is based on
 the Gaussian(R) 09 system (copyright 2009, Gaussian, Inc.),
 the Gaussian(R) 03 system (copyright 2003, Gaussian, Inc.),
 the Gaussian(R) 98 system (copyright 1998, Gaussian, Inc.),
 the Gaussian(R) 94 system (copyright 1995, Gaussian, Inc.),
 the Gaussian 92(TM) system (copyright 1992, Gaussian, Inc.),
 the Gaussian 90(TM) system (copyright 1990, Gaussian, Inc.),
 the Gaussian 88(TM) system (copyright 1988, Gaussian, Inc.),
 the Gaussian 86(TM) system (copyright 1986, Carnegie Mellon
 University), and the Gaussian 82(TM) system (copyright 1983,
 Carnegie Mellon University). Gaussian is a federally registered
 trademark of Gaussian, Inc.
  
 This software contains proprietary and confidential information,
 including trade secrets, belonging to Gaussian, Inc.
  
 This software is provided under written license and may be
 used, copied, transmitted, or stored only in accord with that
 written license.
  
 The following legend is applicable only to US Government
 contracts under FAR:
  
                    RESTRICTED RIGHTS LEGEND
  
 Use, reproduction and disclosure by the US Government is
 subject to restrictions as set forth in subparagraphs (a)
 and (c) of the Commercial Computer Software - Restricted
 Rights clause in FAR 52.227-19.
  
 Gaussian, Inc.
 340 Quinnipiac St., Bldg. 40, Wallingford CT 06492
  
  
 ---------------------------------------------------------------
 Warning -- This program may not be used in any manner that
 competes with the business of Gaussian, Inc. or will provide
 assistance to any competitor of Gaussian, Inc.  The licensee
 of this program is prohibited from giving any competitor of
 Gaussian, Inc. access to this program.  By using this program,
 the user acknowledges that Gaussian, Inc. is engaged in the
 business of creating and licensing software in the field of
 computational chemistry and represents and warrants to the
 licensee that it is not a competitor of Gaussian, Inc. and that
 it will not use this program in any manner prohibited above.
 ---------------------------------------------------------------
  

 Cite this work as:
 Gaussian 16, Revision B.01,
 M. J. Frisch, G. W. Trucks, H. B. Schlegel, G. E. Scuseria, 
 M. A. Robb, J. R. Cheeseman, G. Scalmani, V. Barone, 
 G. A. Petersson, H. Nakatsuji, X. Li, M. Caricato, A. V. Marenich, 
 J. Bloino, B. G. Janesko, R. Gomperts, B. Mennucci, H. P. Hratchian, 
 J. V. Ortiz, A. F. Izmaylov, J. L. Sonnenberg, D. Williams-Young, 
 F. Ding, F. Lipparini, F. Egidi, J. Goings, B. Peng, A. Petrone, 
 T. Henderson, D. Ranasinghe, V. G. Zakrzewski, J. Gao, N. Rega, 
 G. Zheng, W. Liang, M. Hada, M. Ehara, K. Toyota, R. Fukuda, 
 J. Hasegawa, M. Ishida, T. Nakajima, Y. Honda, O. Kitao, H. Nakai, 
 T. Vreven, K. Throssell, J. A. Montgomery, Jr., J. E. Peralta, 
 F. Ogliaro, M. J. Bearpark, J. J. Heyd, E. N. Brothers, K. N. Kudin, 
 V. N. Staroverov, T. A. Keith, R. Kobayashi, J. Normand, 
 K. Raghavachari, A. P. Rendell, J. C. Burant, S. S. Iyengar, 
 J. Tomasi, M. Cossi, J. M. Millam, M. Klene, C. Adamo, R. Cammi, 
 J. W. Ochterski, R. L. Martin, K. Morokuma, O. Farkas, 
 J. B. Foresman, and D. J. Fox, Gaussian, Inc., Wallingford CT, 2016.
 
 ******************************************
 Gaussian 16:  EM64L-G16RevB.01 20-Dec-2017
                30-Apr-2026 
 ******************************************
 %nprocshared=4
 Will use up to    4 processors via shared memory.
 ----------------------------
 # nmr=giao hf/sto-3g pop=nbo
 ----------------------------
 1/38=1,172=1/1;
 2/12=2,17=6,18=5,40=1/2;
 3/6=3,11=9,25=1,30=1/1,2,3,8;
 4//1;
 5/5=2,38=5/2;
 8/6=1,10=90,11=11/1;
 10/13=100,45=16/2;
 6/7=2,8=2,9=2,10=2,28=1,40=1,64=1/1,7;
 99/9=1/99;
 -------------------
 Title Card Required
 -------------------
 Symbolic Z-matrix:
 Charge =  0 Multiplicity = 1
 C                     0.        0.        0. 
 C                     1.4074    0.        0. 
 C                     2.1259    1.1939    0. 
 C                     1.4476    2.407    -0.0131 
 C                     0.0522    2.4279   -0.0287 
 C                    -0.6799    1.2363    0.0056 
 C                    -2.1545    1.3437    0.0986 
 O                    -0.5066    3.6754   -0.0626 
 C                    -1.8139    3.7169   -0.6379 
 C                    -2.7722    2.727     0.0042 
 C                    -1.7628    3.6075   -2.1625 
 C                    -3.1623    3.7498   -2.7407 
 N                    -4.0625    2.7229   -2.2049 
 C                    -4.124     2.6805   -0.726 
 C                    -5.068     3.8296   -0.3661 
 C                    -6.039     3.903    -1.54 
 C                    -5.4541    2.9853   -2.6094 
 O                    -2.8408    0.3541    0.3467 
 C                    -0.7058   -1.3292    0.0096 
 H                    -2.9312    3.0248    1.0506 
 H                    -2.1805    4.7257   -0.4064 
 H                    -4.6432    1.7502   -0.4561 
 H                     1.9559   -0.9407    0.0058 
 H                     3.2128    1.1765    0.0059 
 H                     2.0048    3.3403   -0.0219 
 H                    -1.1071    4.3886   -2.5663 
 H                    -1.319     2.6559   -2.4795 
 H                    -3.5326    4.7642   -2.544 
 H                    -3.1018    3.6406   -3.8303 
 H                    -4.5381    4.7834   -0.265 
 H                    -5.5928    3.6416    0.5765 
 H                    -7.0411    3.5719   -1.2478 
 H                    -6.1156    4.9347   -1.9005 
 H                    -6.0017    2.0345   -2.6144 
 H                    -5.5449    3.4053   -3.6174 
 H                    -1.2074   -1.4898    0.9688 
 H                    -0.0014   -2.1566   -0.1316 
 H                    -1.4269   -1.3897   -0.8118 
 
                          Input orientation:                          
 ---------------------------------------------------------------------
 Center     Atomic      Atomic             Coordinates (Angstroms)
 Number     Number       Type             X           Y           Z
 ---------------------------------------------------------------------
      1          6           0        0.000000    0.000000    0.000000
      2          6           0        1.407400    0.000000    0.000000
      3          6           0        2.125900    1.193900    0.000000
      4          6           0        1.447600    2.407000   -0.013100
      5          6           0        0.052200    2.427900   -0.028700
      6          6           0       -0.679900    1.236300    0.005600
      7          6           0       -2.154500    1.343700    0.098600
      8          8           0       -0.506600    3.675400   -0.062600
      9          6           0       -1.813900    3.716900   -0.637900
     10          6           0       -2.772200    2.727000    0.004200
     11          6           0       -1.762800    3.607500   -2.162500
     12          6           0       -3.162300    3.749800   -2.740700
     13          7           0       -4.062500    2.722900   -2.204900
     14          6           0       -4.124000    2.680500   -0.726000
     15          6           0       -5.068000    3.829600   -0.366100
     16          6           0       -6.039000    3.903000   -1.540000
     17          6           0       -5.454100    2.985300   -2.609400
     18          8           0       -2.840800    0.354100    0.346700
     19          6           0       -0.705800   -1.329200    0.009600
     20          1           0       -2.931200    3.024800    1.050600
     21          1           0       -2.180500    4.725700   -0.406400
     22          1           0       -4.643200    1.750200   -0.456100
     23          1           0        1.955900   -0.940700    0.005800
     24          1           0        3.212800    1.176500    0.005900
     25          1           0        2.004800    3.340300   -0.021900
     26          1           0       -1.107100    4.388600   -2.566300
     27          1           0       -1.319000    2.655900   -2.479500
     28          1           0       -3.532600    4.764200   -2.544000
     29          1           0       -3.101800    3.640600   -3.830300
     30          1           0       -4.538100    4.783400   -0.265000
     31          1           0       -5.592800    3.641600    0.576500
     32          1           0       -7.041100    3.571900   -1.247800
     33          1           0       -6.115600    4.934700   -1.900500
     34          1           0       -6.001700    2.034500   -2.614400
     35          1           0       -5.544900    3.405300   -3.617400
     36          1           0       -1.207400   -1.489800    0.968800
     37          1           0       -0.001400   -2.156600   -0.131600
     38          1           0       -1.426900   -1.389700   -0.811800
 ---------------------------------------------------------------------
                    Distance matrix (angstroms):
                    1          2          3          4          5
     1  C    0.000000
     2  C    1.407400   0.000000
     3  C    2.438206   1.393427   0.000000
     4  C    2.808802   2.407371   1.389919   0.000000
     5  C    2.428631   2.780663   2.413257   1.395644   0.000000
     6  C    1.410933   2.425962   2.806126   2.428404   1.398949
     7  C    2.541087   3.808199   4.284155   3.757420   2.461954
     8  O    3.710677   4.144379   3.618262   2.330276   1.367356
     9  C    4.184793   4.959741   4.721702   3.569817   2.348398
    10  C    3.888655   4.990551   5.132426   4.231951   2.840384
    11  C    4.560474   5.266937   5.062001   4.045712   3.039537
    12  C    5.618948   6.515719   6.481444   5.522146   4.408557
    13  N    5.364669   6.495812   6.745051   5.938433   4.664078
    14  C    4.971874   6.189389   6.465161   5.623678   4.241542
    15  C    6.362742   7.531977   7.670276   6.678431   5.319309
    16  C    7.353539   8.547156   8.739360   7.785796   6.446911
    17  C    6.743011   7.924719   8.214285   7.396531   6.106558
    18  O    2.883701   4.277007   5.049116   4.768042   3.579249
    19  C    1.504998   2.496493   3.792710   4.312405   3.832992
    20  H    4.341095   5.392275   5.479983   4.548299   3.228290
    21  H    5.220343   5.947304   5.584250   4.323675   3.226064
    22  H    4.983025   6.315140   6.807218   6.142107   4.763269
    23  H    2.170367   1.088946   2.141367   3.386122   3.869461
    24  H    3.421443   2.154914   1.087055   2.151842   3.399499
    25  H    3.895806   3.393372   2.149925   1.087013   2.155265
    26  H    5.203016   5.671721   5.219607   4.119716   3.409946
    27  H    3.865422   4.542574   4.489176   3.714721   2.817551
    28  H    6.453588   7.319367   7.158044   6.063352   4.963449
    29  H    6.127506   6.946802   6.927221   6.065462   5.086307
    30  H    6.598901   7.635451   7.573878   6.445102   5.164792
    31  H    6.698732   7.911789   8.118000   7.172106   5.805632
    32  H    7.993282   9.257031   9.552266   8.656761   7.287650
    33  H    8.084784   9.195580   9.248125   8.194726   6.915883
    34  H    6.855267   8.115974   8.579020   7.899214   6.594719
    35  H    7.444969   8.544947   8.764533   7.929857   6.720239
    36  H    2.148463   3.161528   4.387677   4.816451   4.234380
    37  H    2.160612   2.579333   3.970966   4.789581   4.585968
    38  H    2.150890   3.259378   4.467258   4.828623   4.168339
                    6          7          8          9         10
     6  C    0.000000
     7  C    1.481428   0.000000
     8  O    2.446200   2.859788   0.000000
     9  C    2.802396   2.508091   1.428890   0.000000
    10  C    2.569029   1.517888   2.457004   1.520044   0.000000
    11  C    3.390563   3.223475   2.447903   1.529374   2.547304
    12  C    4.474612   3.855723   3.772333   2.498206   2.955127
    13  N    4.305609   3.293747   4.259241   2.915429   2.558322
    14  C    3.805624   2.519113   3.809922   2.533466   1.537113
    15  C    5.110654   3.857995   4.574086   3.267376   2.573625
    16  C    6.182242   4.931974   5.730791   4.324337   3.799936
    17  C    5.717535   4.573344   5.607155   4.203939   3.753693
    18  O    2.358838   1.229581   4.080080   3.651354   2.398472
    19  C    2.565634   3.041553   5.009083   5.206752   4.552230
    20  H    3.059266   2.082226   2.746121   2.139718   1.099508
    21  H    3.820662   3.419594   2.005809   1.098028   2.124501
    22  H    4.023059   2.581969   4.579596   3.450493   2.160244
    23  H    3.418592   4.703454   5.232300   6.026523   5.983891
    24  H    3.893159   5.370704   4.481421   5.668847   6.182579
    25  H    3.411039   4.615269   2.533985   3.886355   4.816279
    26  H    4.090741   4.179731   2.671660   2.160897   3.484386
    27  H    2.932479   3.011068   2.746048   2.182232   2.878474
    28  H    5.204271   4.536774   4.061959   2.772000   3.349883
    29  H    5.134237   4.648589   4.575132   3.443244   3.955590
    30  H    5.247938   4.200630   4.185884   2.949193   2.723904
    31  H    5.499816   4.163008   5.126307   3.969952   3.019901
    32  H    6.891364   5.536834   6.641920   5.264658   4.528230
    33  H    6.845306   5.708064   6.035279   4.645624   4.436231
    34  H    5.985238   4.757996   6.276971   4.926935   4.215008
    35  H    6.441965   5.436328   6.172036   4.784859   4.611284
    36  H    2.938985   3.111747   5.313586   5.482614   4.600049
    37  H    3.462796   4.115936   5.854247   6.167617   5.616522
    38  H    2.849917   2.971482   5.202258   5.124195   4.407143
                   11         12         13         14         15
    11  C    0.000000
    12  C    1.520909   0.000000
    13  N    2.464333   1.466958   0.000000
    14  C    2.915155   2.475335   1.480785   0.000000
    15  C    3.768385   3.045782   2.370021   1.530064   0.000000
    16  C    4.331364   3.120986   2.396097   2.413364   1.525211
    17  C    3.769953   2.419514   1.472761   2.325783   2.427820
    18  O    4.247679   4.600672   3.689773   2.865209   4.188986
    19  C    5.496023   6.276526   5.708849   5.320046   6.766325
    20  H    3.468243   3.866909   3.459662   2.167400   2.687128
    21  H    2.123377   2.713903   3.284469   2.839398   3.023620
    22  H    3.828586   3.377997   2.083665   1.099033   2.124255
    23  H    6.262298   7.465924   7.384463   7.114338   8.498779
    24  H    5.947127   7.403214   7.759445   7.525047   8.703389
    25  H    4.341471   5.853075   6.477561   6.204295   7.098055
    26  H    1.096866   2.159242   3.411679   3.925047   4.565314
    27  H    1.096809   2.159305   2.758022   3.308080   4.460833
    28  H    2.148416   1.097643   2.136045   2.827841   2.823859
    29  H    2.139059   1.096728   2.099296   3.406371   3.987774
    30  H    3.561676   3.015003   2.869681   2.192302   1.095787
    31  H    4.708735   4.113740   3.304847   2.185771   1.095104
    32  H    5.357088   4.159987   3.241743   3.094566   2.176448
    33  H    4.558176   3.291186   3.033140   3.229139   2.161734
    34  H    4.543877   3.319699   2.098114   2.740279   3.024737
    35  H    4.057327   2.562043   2.158318   3.302194   3.313369
    36  H    6.007993   6.710844   5.997567   5.363796   6.706878
    37  H    6.360183   7.189176   6.678370   6.383313   7.846019
    38  H    5.187410   5.757320   5.079428   4.883466   6.379447
                   16         17         18         19         20
    16  C    0.000000
    17  C    1.525745   0.000000
    18  O    5.136420   4.742476   0.000000
    19  C    7.630216   6.929677   2.739591   0.000000
    20  H    4.140153   4.445468   2.763383   4.999340   0.000000
    21  H    4.104864   4.312616   4.484868   6.245767   2.362088
    22  H    2.785255   2.611462   2.417070   5.020229   2.612603
    23  H    9.474669   8.784125   4.980065   2.689906   6.379698
    24  H    9.768286   9.231831   6.118706   4.651233   6.500488
    25  H    8.205119   7.902934   5.703779   5.399312   5.061017
    26  H    5.060903   4.568098   5.269580   6.284070   4.274255
    27  H    4.971551   4.150233   3.949882   4.738423   3.898318
    28  H    2.834029   2.619337   5.318244   7.186181   4.038359
    29  H    3.733828   2.730079   5.321328   6.721946   4.922550
    30  H    2.157181   3.093288   4.782646   7.219820   2.721324
    31  H    2.178760   3.255753   4.293480   6.993783   2.772964
    32  H    1.095086   2.171779   5.526227   8.107889   4.740595
    33  H    1.095551   2.177219   6.062683   8.494166   4.743112
    34  H    2.155695   1.097229   4.645766   6.800471   4.882713
    35  H    2.192585   1.095769   5.686481   7.680333   5.363435
    36  H    7.662945   7.131935   2.540664   1.094285   4.833197
    37  H    8.669196   7.893704   3.820285   1.095768   6.068627
    38  H    7.057933   6.212112   2.526277   1.094689   5.021878
                   21         22         23         24         25
    21  H    0.000000
    22  H    3.862766   0.000000
    23  H    7.027646   7.141598   0.000000
    24  H    6.469505   7.890457   2.462181   0.000000
    25  H    4.425371   6.849296   4.281369   2.478319   0.000000
    26  H    2.435363   4.890614   6.663265   5.966183   4.154134
    27  H    3.053522   3.995591   5.462345   5.376156   4.189970
    28  H    2.529623   3.831051   8.316910   8.054440   6.249102
    29  H    3.708008   4.163502   7.828429   7.788607   6.377418
    30  H    2.362541   3.041031   8.660871   8.553336   6.704564
    31  H    3.712837   2.354867   8.849070   9.161926   7.627083
    32  H    5.066028   3.113728  10.143031  10.604347   9.131526
    33  H    4.214383   3.794113  10.163829  10.236087   8.485997
    34  H    5.169080   2.566049   8.890481   9.618168   8.516467
    35  H    4.834580   3.680521   9.395600   9.736178   8.362405
    36  H    6.439762   4.932815   3.351917   5.251143   5.884690
    37  H    7.224268   6.075746   2.308314   4.632445   5.852588
    38  H    6.174980   4.508889   3.509046   5.364777   5.896898
                   26         27         28         29         30
    26  H    0.000000
    27  H    1.747766   0.000000
    28  H    2.454511   3.057632   0.000000
    29  H    2.477101   2.443905   1.761429   0.000000
    30  H    4.150134   4.448918   2.491032   4.010027   0.000000
    31  H    5.527812   5.345662   3.904123   5.062111   1.767547
    32  H    6.133335   5.924405   3.925721   4.710850   2.949345
    33  H    5.081987   5.341867   2.667405   3.805498   2.277336
    34  H    5.431502   4.725676   3.681396   3.530919   3.901058
    35  H    4.665379   4.440118   2.654835   2.463621   3.761834
    36  H    6.860217   5.393520   7.540480   7.276065   7.208943
    37  H    7.070359   5.514423   8.135510   7.543235   8.292348
    38  H    6.047255   4.377185   6.730897   6.100865   6.934387
                   31         32         33         34         35
    31  H    0.000000
    32  H    2.330344   0.000000
    33  H    2.842702   1.771946   0.000000
    34  H    3.596083   2.304679   2.988944   0.000000
    35  H    4.200825   2.807379   2.369073   1.758911   0.000000
    36  H    6.761427   8.035308   8.578899   6.945885   7.988062
    37  H    8.086055   9.144342   9.528850   7.728727   8.591619
    38  H    6.678030   7.505119   7.947780   5.991937   6.915298
                   36         37         38
    36  H    0.000000
    37  H    1.763502   0.000000
    38  H    1.796869   1.755807   0.000000
 Stoichiometry    C16H19NO2
 Framework group  C1[X(C16H19NO2)]
 Deg. of freedom   108
 Full point group                 C1      NOp   1
 Largest Abelian subgroup         C1      NOp   1
 Largest concise Abelian subgroup C1      NOp   1
                         Standard orientation:                         
 ---------------------------------------------------------------------
 Center     Atomic      Atomic             Coordinates (Angstroms)
 Number     Number       Type             X           Y           Z
 ---------------------------------------------------------------------
      1          6           0        2.864487    1.047208    0.262453
      2          6           0        4.079076    0.366584    0.468123
      3          6           0        4.185788   -1.001631    0.226795
      4          6           0        3.075329   -1.713220   -0.211834
      5          6           0        1.857972   -1.059194   -0.407060
      6          6           0        1.747631    0.320063   -0.200826
      7          6           0        0.453535    0.958799   -0.535429
      8          8           0        0.830334   -1.861885   -0.818532
      9          6           0       -0.468296   -1.373022   -0.477506
     10          6           0       -0.699372    0.057144   -0.937682
     11          6           0       -0.781518   -1.590070    1.003631
     12          6           0       -2.203828   -1.143343    1.304686
     13          7           0       -2.397047    0.270428    0.964270
     14          6           0       -2.039650    0.613720   -0.431130
     15          6           0       -3.252961    0.155281   -1.242798
     16          6           0       -4.433844    0.341995   -0.295737
     17          6           0       -3.818111    0.643222    1.067360
     18          8           0        0.352568    2.183292   -0.583306
     19          6           0        2.829458    2.526758    0.535806
     20          1           0       -0.687107    0.075632   -2.036967
     21          1           0       -1.157039   -2.014817   -1.042660
     22          1           0       -2.016125    1.710791   -0.492408
     23          1           0        4.958454    0.906683    0.815671
     24          1           0        5.132831   -1.511277    0.385096
     25          1           0        3.152558   -2.782276   -0.392817
     26          1           0       -0.658604   -2.650698    1.254776
     27          1           0       -0.073424   -1.050544    1.644338
     28          1           0       -2.907401   -1.794662    0.770281
     29          1           0       -2.393651   -1.283543    2.375725
     30          1           0       -3.178959   -0.897492   -1.537658
     31          1           0       -3.375028    0.746552   -2.156447
     32          1           0       -5.078792    1.164482   -0.622490
     33          1           0       -5.039175   -0.570627   -0.265253
     34          1           0       -3.883191    1.720009    1.267873
     35          1           0       -4.344410    0.139042    1.885603
     36          1           0        2.720034    3.086496   -0.398100
     37          1           0        3.755673    2.867033    1.012299
     38          1           0        2.015306    2.773194    1.224841
 ---------------------------------------------------------------------
 Rotational constants (GHZ):           0.8472234           0.2624764           0.2288663
 Standard basis: STO-3G (5D, 7F)
 There are   114 symmetry adapted cartesian basis functions of A   symmetry.
 There are   114 symmetry adapted basis functions of A   symmetry.
   114 basis functions,   342 primitive gaussians,   114 cartesian basis functions
    69 alpha electrons       69 beta electrons
       nuclear repulsion energy      1498.8925324700 Hartrees.
 NAtoms=   38 NActive=   38 NUniq=   38 SFac= 1.00D+00 NAtFMM=   60 NAOKFM=F Big=F
 Integral buffers will be    131072 words long.
 Raffenetti 1 integral format.
 Two-electron integral symmetry is turned on.
 One-electron integrals computed using PRISM.
 NBasis=   114 RedAO= T EigKep=  1.73D-01  NBF=   114
 NBsUse=   114 1.00D-06 EigRej= -1.00D+00 NBFU=   114
 ExpMin= 1.69D-01 ExpMax= 1.31D+02 ExpMxC= 1.31D+02 IAcc=3 IRadAn=         5 AccDes= 0.00D+00
 Harris functional with IExCor=  205 and IRadAn=       5 diagonalized for initial guess.
 HarFok:  IExCor=  205 AccDes= 0.00D+00 IRadAn=         5 IDoV= 1 UseB2=F ITyADJ=14
 ICtDFT=  3500011 ScaDFX=  1.000000  1.000000  1.000000  1.000000
 FoFCou: FMM=F IPFlag=           0 FMFlag=      100000 FMFlg1=           0
         NFxFlg=           0 DoJE=T BraDBF=F KetDBF=T FulRan=T
         wScrn=  0.000000 ICntrl=       500 IOpCl=  0 I1Cent=   200000004 NGrid=           0
         NMat0=    1 NMatS0=      1 NMatT0=    0 NMatD0=    1 NMtDS0=    0 NMtDT0=    0
 Petite list used in FoFCou.
 Requested convergence on RMS density matrix=1.00D-08 within 128 cycles.
 Requested convergence on MAX density matrix=1.00D-06.
 Requested convergence on             energy=1.00D-06.
 No special actions if energy rises.
 Integral accuracy reduced to 1.0D-05 until final iterations.
 Initial convergence to 1.0D-05 achieved.  Increase integral accuracy.
 SCF Done:  E(RHF) =  -811.055774679     A.U. after   15 cycles
            NFock= 15  Conv=0.56D-08     -V/T= 2.0093
 Range of M.O.s used for correlation:     1   114
 NBasis=   114 NAE=    69 NBE=    69 NFC=     0 NFV=     0
 NROrb=    114 NOA=    69 NOB=    69 NVA=    45 NVB=    45
          Differentiating once with respect to magnetic field using GIAOs.
          Electric field/nuclear overlap derivatives assumed to be zero.
 FoFCou: FMM=F IPFlag=           0 FMFlag=      100000 FMFlg1=           0
         NFxFlg=           0 DoJE=F BraDBF=F KetDBF=T FulRan=T
         wScrn=  0.000000 ICntrl=      6100 IOpCl=  0 I1Cent=           7 NGrid=          38
         NMat0=    1 NMatS0=      1 NMatT0=    0 NMatD0=    1 NMtDS0=    0 NMtDT0=    0
 Symmetry not used in FoFCou.
 FoFJK:  IHMeth= 1 ICntrl=    6127 DoSepK=F KAlg= 0 I1Cent=           0 FoldK=F
 IRaf=         1 NMat=       1 IRICut=       1 DoRegI=T DoRafI=F ISym2E= 0 IDoP0=0 IntGTp=1.
          There are     3 degrees of freedom in the 1st order CPHF.  IDoFFX=0 NUNeed=     3.
      3 vectors produced by pass  0 Test12= 1.04D-13 3.33D-08 XBig12= 2.41D+01 1.52D+00.
 AX will form     3 AO Fock derivatives at one time.
      3 vectors produced by pass  1 Test12= 1.04D-13 3.33D-08 XBig12= 1.48D-01 2.18D-01.
      3 vectors produced by pass  2 Test12= 1.04D-13 3.33D-08 XBig12= 4.56D-03 2.67D-02.
      3 vectors produced by pass  3 Test12= 1.04D-13 3.33D-08 XBig12= 1.49D-04 3.43D-03.
      3 vectors produced by pass  4 Test12= 1.04D-13 3.33D-08 XBig12= 1.96D-06 1.72D-04.
      3 vectors produced by pass  5 Test12= 1.04D-13 3.33D-08 XBig12= 2.21D-08 2.51D-05.
      3 vectors produced by pass  6 Test12= 1.04D-13 3.33D-08 XBig12= 4.18D-10 3.28D-06.
      3 vectors produced by pass  7 Test12= 1.04D-13 3.33D-08 XBig12= 6.70D-12 3.29D-07.
      1 vectors produced by pass  8 Test12= 1.04D-13 3.33D-08 XBig12= 1.36D-13 5.68D-08.
 InvSVY:  IOpt=1 It=  1 EMax= 8.88D-16
 Solved reduced A of dimension    25 with     3 vectors.
 Calculating GIAO nuclear magnetic shielding tensors.
 SCF GIAO Magnetic shielding tensor (ppm):
      1  C    Isotropic =   113.5138   Anisotropy =   169.9509
   XX=    92.6106   YX=     1.1107   ZX=   -39.5121
   XY=    -2.0703   YY=    39.6214   ZY=   -38.0155
   XZ=   -39.7999   YZ=   -33.5557   ZZ=   208.3093
   Eigenvalues:    31.0318    82.6952   226.8144
      2  C    Isotropic =   123.8361   Anisotropy =   143.2163
   XX=    72.3881   YX=   -32.4942   ZX=   -47.1392
   XY=   -25.8898   YY=    98.3820   ZY=   -30.6284
   XZ=   -47.0158   YZ=   -28.1751   ZZ=   200.7382
   Eigenvalues:    34.8623   117.3323   219.3136
      3  C    Isotropic =   117.3337   Anisotropy =   168.5248
   XX=    50.0468   YX=    39.9908   ZX=   -42.1216
   XY=    41.8746   YY=    87.0334   ZY=   -16.5750
   XZ=   -41.8173   YZ=   -15.7147   ZZ=   214.9208
   Eigenvalues:    19.7444   102.5730   229.6836
      4  C    Isotropic =   131.0299   Anisotropy =   146.4997
   XX=   122.6987   YX=     8.7860   ZX=   -26.4849
   XY=    12.9429   YY=    52.7289   ZY=   -30.2766
   XZ=   -24.4091   YZ=   -23.1991   ZZ=   217.6620
   Eigenvalues:    47.8567   116.5366   228.6963
      5  C    Isotropic =   106.5968   Anisotropy =   133.2022
   XX=    69.3436   YX=   -13.7086   ZX=   -34.5927
   XY=    -3.8192   YY=    69.6829   ZY=   -22.1337
   XZ=   -39.6326   YZ=   -26.1016   ZZ=   180.7639
   Eigenvalues:    46.4753    77.9168   195.3983
      6  C    Isotropic =   131.0609   Anisotropy =   150.9445
   XX=    86.0715   YX=    23.6035   ZX=   -42.6690
   XY=    21.7523   YY=    93.2058   ZY=   -15.5521
   XZ=   -44.7750   YZ=   -20.9721   ZZ=   213.9054
   Eigenvalues:    62.7240    98.7682   231.6906
      7  C    Isotropic =    91.0330   Anisotropy =   140.3644
   XX=   -27.3598   YX=   -15.3216   ZX=   -63.6518
   XY=   -16.6001   YY=   134.6193   ZY=    -7.6836
   XZ=   -62.4992   YZ=    -2.1451   ZZ=   165.8393
   Eigenvalues:   -47.6591   136.1487   184.6092
      8  O    Isotropic =   343.7233   Anisotropy =   102.1927
   XX=   280.8504   YX=    18.1933   ZX=   -12.5485
   XY=    55.5134   YY=   341.8056   ZY=     1.2662
   XZ=   -26.2620   YZ=    20.1688   ZZ=   408.5140
   Eigenvalues:   260.2047   359.1134   411.8518
      9  C    Isotropic =   189.3642   Anisotropy =    52.1392
   XX=   218.7319   YX=   -13.8789   ZX=   -10.6964
   XY=   -10.7347   YY=   170.8595   ZY=    -4.9633
   XZ=   -12.2426   YZ=    -1.1661   ZZ=   178.5012
   Eigenvalues:   165.0794   178.8896   224.1236
     10  C    Isotropic =   211.1483   Anisotropy =    14.5123
   XX=   219.6312   YX=     4.0408   ZX=    -2.5209
   XY=     1.1064   YY=   202.2221   ZY=     0.6500
   XZ=    -3.3485   YZ=     1.7929   ZZ=   211.5915
   Eigenvalues:   201.5735   211.0482   220.8231
     11  C    Isotropic =   220.3581   Anisotropy =    13.5179
   XX=   224.0341   YX=    -1.9355   ZX=    -4.0260
   XY=    -5.1306   YY=   215.1884   ZY=    -3.8097
   XZ=    -8.6283   YZ=    -3.7083   ZZ=   221.8517
   Eigenvalues:   210.6589   221.0454   229.3700
     12  C    Isotropic =   203.6482   Anisotropy =    36.4283
   XX=   200.5845   YX=    -9.5601   ZX=    -0.9873
   XY=   -14.5963   YY=   220.0668   ZY=    -9.5320
   XZ=    -2.5070   YZ=   -11.5105   ZZ=   190.2932
   Eigenvalues:   184.7270   198.2838   227.9337
     13  N    Isotropic =   286.3470   Anisotropy =    61.3258
   XX=   309.0812   YX=   -12.0329   ZX=   -21.1656
   XY=   -17.3568   YY=   252.7507   ZY=    -5.7546
   XZ=   -22.7549   YZ=    -0.4139   ZZ=   297.2090
   Eigenvalues:   247.5787   284.2313   327.2308
     14  C    Isotropic =   193.6022   Anisotropy =    36.6103
   XX=   200.9401   YX=     0.4408   ZX=    -4.7244
   XY=     9.8857   YY=   168.1600   ZY=   -10.3408
   XZ=   -12.1428   YZ=    -4.8666   ZZ=   211.7067
   Eigenvalues:   166.4559   196.3417   218.0091
     15  C    Isotropic =   213.6044   Anisotropy =    31.7175
   XX=   234.5668   YX=     2.4191   ZX=    -1.9778
   XY=     3.0256   YY=   188.5402   ZY=    12.5031
   XZ=    -0.1357   YZ=     3.3264   ZZ=   217.7062
   Eigenvalues:   186.3565   219.7073   234.7494
     16  C    Isotropic =   216.3316   Anisotropy =    23.4427
   XX=   227.8711   YX=    -2.3631   ZX=    -1.6213
   XY=    -0.1715   YY=   192.1205   ZY=     6.9270
   XZ=    -3.4047   YZ=     6.4440   ZZ=   229.0030
   Eigenvalues:   190.9281   226.1066   231.9600
     17  C    Isotropic =   197.4452   Anisotropy =    51.6390
   XX=   227.9074   YX=   -13.8665   ZX=    -4.9416
   XY=   -15.8728   YY=   171.7667   ZY=     9.5838
   XZ=     1.2979   YZ=     2.5091   ZZ=   192.6615
   Eigenvalues:   166.9195   193.5449   231.8712
     18  O    Isotropic =  -340.4442   Anisotropy =  1264.2008
   XX=  -336.4206   YX=    97.6653   ZX=  -247.4447
   XY=    53.7823   YY= -1122.5792   ZY=    27.3879
   XZ=  -218.3873   YZ=     5.9400   ZZ=   437.6673
   Eigenvalues: -1130.8044  -392.8845   502.3564
     19  C    Isotropic =   218.0141   Anisotropy =    23.3588
   XX=   214.2275   YX=    -1.1339   ZX=     1.8855
   XY=    -1.4574   YY=   232.6812   ZY=     5.1771
   XZ=     3.7688   YZ=     4.4358   ZZ=   207.1334
   Eigenvalues:   205.2458   215.2098   233.5866
     20  H    Isotropic =    31.1063   Anisotropy =    12.0939
   XX=    28.9830   YX=    -1.0039   ZX=    -1.9717
   XY=    -1.5527   YY=    25.3704   ZY=    -2.5270
   XZ=     0.8963   YZ=    -0.6979   ZZ=    38.9655
   Eigenvalues:    24.7605    29.3895    39.1689
     21  H    Isotropic =    30.4295   Anisotropy =     9.0373
   XX=    31.9695   YX=     2.5354   ZX=     3.1989
   XY=     0.8200   YY=    31.3179   ZY=     4.5925
   XZ=     1.9526   YZ=     4.6955   ZZ=    28.0011
   Eigenvalues:    24.5325    30.3016    36.4543
     22  H    Isotropic =    30.4334   Anisotropy =    13.2471
   XX=    29.3741   YX=     2.0122   ZX=     0.1951
   XY=     1.4063   YY=    38.6257   ZY=    -1.9657
   XZ=    -2.1274   YZ=    -2.3718   ZZ=    23.3004
   Eigenvalues:    22.9160    29.1194    39.2648
     23  H    Isotropic =    25.8749   Anisotropy =     5.9832
   XX=    28.0249   YX=    -1.7820   ZX=     1.4428
   XY=    -1.8128   YY=    28.0460   ZY=     0.7381
   XZ=     1.5344   YZ=     0.8593   ZZ=    21.5537
   Eigenvalues:    21.0246    26.7364    29.8637
     24  H    Isotropic =    25.2964   Anisotropy =     3.6061
   XX=    26.9919   YX=     0.0188   ZX=     1.2994
   XY=     0.4094   YY=    26.9740   ZY=     1.1659
   XZ=     1.1463   YZ=     1.2107   ZZ=    21.9234
   Eigenvalues:    21.4202    26.7687    27.7005
     25  H    Isotropic =    25.7184   Anisotropy =     7.1924
   XX=    29.5317   YX=    -2.0800   ZX=     1.4048
   XY=    -1.6087   YY=    26.7632   ZY=     1.0590
   XZ=     1.4660   YZ=     1.4045   ZZ=    20.8601
   Eigenvalues:    20.2625    26.3793    30.5133
     26  H    Isotropic =    32.1126   Anisotropy =    14.9983
   XX=    28.9831   YX=    -2.3057   ZX=    -0.6363
   XY=    -3.1508   YY=    39.0451   ZY=    -5.2895
   XZ=    -1.9704   YZ=    -6.9438   ZZ=    28.3097
   Eigenvalues:    24.3328    29.8935    42.1115
     27  H    Isotropic =    32.8401   Anisotropy =     9.4355
   XX=    36.7453   YX=     2.6652   ZX=     4.4658
   XY=     2.2497   YY=    27.0030   ZY=     1.8073
   XZ=     1.0017   YZ=    -0.5833   ZZ=    34.7721
   Eigenvalues:    26.4180    32.9719    39.1305
     28  H    Isotropic =    32.5040   Anisotropy =     8.9655
   XX=    34.8093   YX=     3.2801   ZX=     1.3497
   XY=     3.2836   YY=    35.5396   ZY=    -0.2905
   XZ=     0.6534   YZ=    -0.9063   ZZ=    27.1630
   Eigenvalues:    26.8952    32.1357    38.4810
     29  H    Isotropic =    31.8342   Anisotropy =    14.3343
   XX=    29.1723   YX=    -1.1548   ZX=    -3.4282
   XY=    -1.4438   YY=    27.6619   ZY=    -5.0458
   XZ=    -4.4572   YZ=    -4.6701   ZZ=    38.6684
   Eigenvalues:    24.2379    29.8744    41.3904
     30  H    Isotropic =    32.0561   Anisotropy =     9.5135
   XX=    31.3794   YX=    -0.3162   ZX=     1.7940
   XY=    -0.5032   YY=    34.6382   ZY=     5.4786
   XZ=     1.4729   YZ=     5.5556   ZZ=    30.1505
   Eigenvalues:    25.9721    31.7977    38.3984
     31  H    Isotropic =    31.8523   Anisotropy =    14.2019
   XX=    29.7322   YX=    -1.2080   ZX=     2.3380
   XY=    -1.6409   YY=    27.4160   ZY=    -5.1393
   XZ=     2.7347   YZ=    -5.6130   ZZ=    38.4086
   Eigenvalues:    25.1912    29.0454    41.3202
     32  H    Isotropic =    32.0035   Anisotropy =    15.7143
   XX=    36.0672   YX=    -7.4707   ZX=     3.3094
   XY=    -7.3231   YY=    31.1325   ZY=    -2.4304
   XZ=     2.8010   YZ=    -2.2475   ZZ=    28.8108
   Eigenvalues:    25.7963    27.7345    42.4797
     33  H    Isotropic =    32.0454   Anisotropy =    14.0977
   XX=    36.5477   YX=     6.8029   ZX=     0.4541
   XY=     6.5415   YY=    32.2949   ZY=     0.5279
   XZ=     0.0979   YZ=     0.5023   ZZ=    27.2935
   Eigenvalues:    27.0832    27.6092    41.4438
     34  H    Isotropic =    31.4556   Anisotropy =    14.5752
   XX=    28.9182   YX=    -4.7912   ZX=    -1.3383
   XY=    -3.6535   YY=    37.0050   ZY=     5.4457
   XZ=    -1.6868   YZ=     5.1776   ZZ=    28.4435
   Eigenvalues:    25.7786    27.4157    41.1724
     35  H    Isotropic =    31.8159   Anisotropy =    13.8215
   XX=    33.4370   YX=     0.2975   ZX=    -6.7107
   XY=    -0.3499   YY=    26.6648   ZY=    -1.9251
   XZ=    -6.1091   YZ=    -2.0832   ZZ=    35.3458
   Eigenvalues:    25.7132    28.7042    41.0302
     36  H    Isotropic =    30.7230   Anisotropy =    11.5877
   XX=    28.0537   YX=     0.5649   ZX=     2.1580
   XY=    -0.2403   YY=    34.0449   ZY=    -4.4271
   XZ=     1.6179   YZ=    -7.5245   ZZ=    30.0703
   Eigenvalues:    24.9019    28.8189    38.4481
     37  H    Isotropic =    30.9695   Anisotropy =    12.2837
   XX=    35.0294   YX=     2.5118   ZX=     4.5447
   XY=     3.3174   YY=    31.5682   ZY=     2.7353
   XZ=     5.0614   YZ=     3.1611   ZZ=    26.3109
   Eigenvalues:    23.8366    29.9133    39.1587
     38  H    Isotropic =    31.0752   Anisotropy =     9.6886
   XX=    33.4768   YX=    -2.4363   ZX=    -3.8834
   XY=    -1.1625   YY=    30.7926   ZY=     3.1023
   XZ=    -2.4079   YZ=     6.1890   ZZ=    28.9562
   Eigenvalues:    24.9141    30.7773    37.5343
 End of Minotr F.D. properties file   721 does not exist.
 End of Minotr F.D. properties file   722 does not exist.
 End of Minotr F.D. properties file   788 does not exist.

 **********************************************************************

            Population analysis using the SCF Density.

 **********************************************************************

 Orbital symmetries:
       Occupied  (A) (A) (A) (A) (A) (A) (A) (A) (A) (A) (A) (A)
                 (A) (A) (A) (A) (A) (A) (A) (A) (A) (A) (A) (A)
                 (A) (A) (A) (A) (A) (A) (A) (A) (A) (A) (A) (A)
                 (A) (A) (A) (A) (A) (A) (A) (A) (A) (A) (A) (A)
                 (A) (A) (A) (A) (A) (A) (A) (A) (A) (A) (A) (A)
                 (A) (A) (A) (A) (A) (A) (A) (A) (A)
       Virtual   (A) (A) (A) (A) (A) (A) (A) (A) (A) (A) (A) (A)
                 (A) (A) (A) (A) (A) (A) (A) (A) (A) (A) (A) (A)
                 (A) (A) (A) (A) (A) (A) (A) (A) (A) (A) (A) (A)
                 (A) (A) (A) (A) (A) (A) (A) (A) (A)
 The electronic state is 1-A.
 Alpha  occ. eigenvalues --  -20.30022 -20.25900 -15.31585 -11.11375 -11.11349
 Alpha  occ. eigenvalues --  -11.09690 -11.08112 -11.07929 -11.06865 -11.06814
 Alpha  occ. eigenvalues --  -11.05438 -11.05029 -11.04215 -11.04163 -11.04056
 Alpha  occ. eigenvalues --  -11.03813 -11.02731 -11.02068 -11.01734  -1.34569
 Alpha  occ. eigenvalues --   -1.31197  -1.20112  -1.09627  -1.05169  -1.02721
 Alpha  occ. eigenvalues --   -0.98951  -0.97702  -0.95654  -0.92163  -0.88055
 Alpha  occ. eigenvalues --   -0.84212  -0.80830  -0.78993  -0.75555  -0.74235
 Alpha  occ. eigenvalues --   -0.71814  -0.67167  -0.65793  -0.63002  -0.62361
 Alpha  occ. eigenvalues --   -0.61777  -0.60017  -0.59049  -0.57746  -0.55686
 Alpha  occ. eigenvalues --   -0.54958  -0.54555  -0.54161  -0.52945  -0.51381
 Alpha  occ. eigenvalues --   -0.50918  -0.49864  -0.49337  -0.47815  -0.47311
 Alpha  occ. eigenvalues --   -0.46912  -0.45257  -0.44816  -0.43936  -0.43295
 Alpha  occ. eigenvalues --   -0.42937  -0.41943  -0.39579  -0.38335  -0.36794
 Alpha  occ. eigenvalues --   -0.31145  -0.28770  -0.27087  -0.24311
 Alpha virt. eigenvalues --    0.21507   0.27026   0.34813   0.49031   0.51951
 Alpha virt. eigenvalues --    0.52937   0.53637   0.55976   0.57195   0.59099
 Alpha virt. eigenvalues --    0.60734   0.61691   0.61733   0.64387   0.64726
 Alpha virt. eigenvalues --    0.65744   0.67249   0.67639   0.69096   0.69494
 Alpha virt. eigenvalues --    0.70058   0.70855   0.72529   0.73074   0.73887
 Alpha virt. eigenvalues --    0.74010   0.74719   0.75078   0.76163   0.77202
 Alpha virt. eigenvalues --    0.77597   0.78239   0.78823   0.80694   0.81077
 Alpha virt. eigenvalues --    0.82123   0.84195   0.86069   0.86887   0.87157
 Alpha virt. eigenvalues --    0.90915   0.93835   1.00760   1.12098   1.13810
          Condensed to atoms (all electrons):
               1          2          3          4          5          6
     1  C    4.757682   0.505738  -0.028786  -0.010145  -0.028128   0.496611
     2  C    0.505738   4.807424   0.504052  -0.031654  -0.011324  -0.031007
     3  C   -0.028786   0.504052   4.758972   0.509425  -0.029158  -0.009463
     4  C   -0.010145  -0.031654   0.509425   4.807705   0.498829  -0.032160
     5  C   -0.028128  -0.011324  -0.029158   0.498829   4.750764   0.490040
     6  C    0.496611  -0.031007  -0.009463  -0.032160   0.490040   4.871675
     7  C   -0.023335   0.000762   0.000018   0.000805  -0.029679   0.389715
     8  O    0.000249   0.000008   0.000354  -0.027468   0.293999  -0.017017
     9  C    0.000025   0.000000  -0.000021   0.001710  -0.040346  -0.006760
    10  C    0.000591  -0.000006  -0.000000  -0.000031  -0.004946  -0.033810
    11  C   -0.000005   0.000000   0.000001   0.000017  -0.002073  -0.000053
    12  C    0.000000   0.000000  -0.000000   0.000000   0.000002  -0.000004
    13  N    0.000000  -0.000000  -0.000000  -0.000000   0.000001  -0.000001
    14  C   -0.000005   0.000000  -0.000000   0.000000   0.000015   0.000549
    15  C    0.000000  -0.000000  -0.000000   0.000000  -0.000000  -0.000004
    16  C   -0.000000   0.000000   0.000000   0.000000   0.000000   0.000000
    17  C   -0.000000   0.000000  -0.000000   0.000000  -0.000000   0.000000
    18  O   -0.001128  -0.000004  -0.000000  -0.000002   0.000324  -0.028348
    19  C    0.381431  -0.030278   0.000882   0.000012   0.000718  -0.024015
    20  H   -0.000018   0.000000   0.000000  -0.000001   0.000039   0.000552
    21  H    0.000001   0.000000   0.000000  -0.000039   0.002541  -0.000035
    22  H   -0.000001   0.000000   0.000000  -0.000000  -0.000001   0.000070
    23  H   -0.025034   0.394239  -0.026832   0.001426   0.000048   0.001255
    24  H    0.001325  -0.024831   0.393657  -0.025108   0.001367   0.000008
    25  H    0.000038   0.001390  -0.024697   0.393421  -0.025335   0.001237
    26  H    0.000000  -0.000000   0.000000  -0.000005   0.000044   0.000010
    27  H   -0.000004   0.000001   0.000002  -0.000060   0.000287  -0.000131
    28  H   -0.000000   0.000000   0.000000  -0.000000  -0.000001  -0.000000
    29  H   -0.000000  -0.000000   0.000000   0.000000   0.000000   0.000001
    30  H    0.000000  -0.000000   0.000000  -0.000000  -0.000000  -0.000000
    31  H   -0.000000   0.000000   0.000000  -0.000000   0.000000   0.000000
    32  H    0.000000  -0.000000  -0.000000   0.000000  -0.000000  -0.000000
    33  H    0.000000  -0.000000   0.000000  -0.000000   0.000000  -0.000000
    34  H    0.000000  -0.000000   0.000000  -0.000000   0.000000  -0.000000
    35  H    0.000000  -0.000000  -0.000000  -0.000000   0.000000  -0.000000
    36  H   -0.021127   0.000480  -0.000023   0.000003  -0.000004  -0.001392
    37  H   -0.020597  -0.005627   0.000061  -0.000000  -0.000016   0.001123
    38  H   -0.020997   0.000905  -0.000023   0.000002   0.000005  -0.002262
               7          8          9         10         11         12
     1  C   -0.023335   0.000249   0.000025   0.000591  -0.000005   0.000000
     2  C    0.000762   0.000008   0.000000  -0.000006   0.000000   0.000000
     3  C    0.000018   0.000354  -0.000021  -0.000000   0.000001  -0.000000
     4  C    0.000805  -0.027468   0.001710  -0.000031   0.000017   0.000000
     5  C   -0.029679   0.293999  -0.040346  -0.004946  -0.002073   0.000002
     6  C    0.389715  -0.017017  -0.006760  -0.033810  -0.000053  -0.000004
     7  C    4.767025  -0.002050  -0.022771   0.354338  -0.000923   0.000042
     8  O   -0.002050   7.792807   0.264426  -0.015209  -0.017744   0.000251
     9  C   -0.022771   0.264426   4.737837   0.357396   0.358442  -0.022231
    10  C    0.354338  -0.015209   0.357396   4.814747  -0.024818  -0.003360
    11  C   -0.000923  -0.017744   0.358442  -0.024818   4.769050   0.362339
    12  C    0.000042   0.000251  -0.022231  -0.003360   0.362339   4.706275
    13  N   -0.000061   0.000000  -0.002962  -0.015178  -0.020526   0.325531
    14  C   -0.021683   0.000207  -0.019756   0.360231  -0.004242  -0.030901
    15  C    0.000720   0.000000  -0.000828  -0.021516   0.000033  -0.001138
    16  C   -0.000006   0.000000   0.000000   0.000811  -0.000016  -0.000484
    17  C   -0.000003   0.000000   0.000031   0.001065   0.001110  -0.035185
    18  O    0.432901   0.000000   0.000286  -0.025032  -0.000001  -0.000000
    19  C   -0.002600  -0.000001  -0.000000   0.000007  -0.000000   0.000000
    20  H   -0.025651  -0.000169  -0.022809   0.378888   0.001259  -0.000006
    21  H    0.001301  -0.020849   0.379895  -0.025496  -0.026697  -0.002045
    22  H   -0.005099  -0.000004   0.001105  -0.022998   0.000018   0.001659
    23  H   -0.000014   0.000000  -0.000000   0.000000  -0.000000  -0.000000
    24  H    0.000001  -0.000005   0.000000  -0.000000  -0.000000   0.000000
    25  H   -0.000019  -0.001095   0.000036   0.000000  -0.000002   0.000000
    26  H   -0.000006  -0.000508  -0.021264   0.001204   0.382711  -0.019708
    27  H    0.000078  -0.000718  -0.021996  -0.001433   0.380940  -0.021221
    28  H    0.000001   0.000003  -0.002265   0.000064  -0.025264   0.377438
    29  H   -0.000002  -0.000005   0.001281  -0.000005  -0.021242   0.383632
    30  H    0.000009  -0.000002  -0.000349  -0.003142   0.000040  -0.000323
    31  H   -0.000005  -0.000000   0.000017   0.000079  -0.000002  -0.000001
    32  H    0.000000   0.000000  -0.000000  -0.000009   0.000000  -0.000005
    33  H    0.000000  -0.000000   0.000002  -0.000021   0.000001  -0.000125
    34  H    0.000000  -0.000000  -0.000001   0.000001  -0.000024   0.001848
    35  H   -0.000000  -0.000000  -0.000000  -0.000021   0.000047  -0.004923
    36  H   -0.000039  -0.000000  -0.000000  -0.000003  -0.000000   0.000000
    37  H    0.000015   0.000000   0.000000   0.000000   0.000000   0.000000
    38  H   -0.000090  -0.000000  -0.000000  -0.000003   0.000000  -0.000000
              13         14         15         16         17         18
     1  C    0.000000  -0.000005   0.000000  -0.000000  -0.000000  -0.001128
     2  C   -0.000000   0.000000  -0.000000   0.000000   0.000000  -0.000004
     3  C   -0.000000  -0.000000  -0.000000   0.000000  -0.000000  -0.000000
     4  C   -0.000000   0.000000   0.000000   0.000000   0.000000  -0.000002
     5  C    0.000001   0.000015  -0.000000   0.000000  -0.000000   0.000324
     6  C   -0.000001   0.000549  -0.000004   0.000000   0.000000  -0.028348
     7  C   -0.000061  -0.021683   0.000720  -0.000006  -0.000003   0.432901
     8  O    0.000000   0.000207   0.000000   0.000000   0.000000   0.000000
     9  C   -0.002962  -0.019756  -0.000828   0.000000   0.000031   0.000286
    10  C   -0.015178   0.360231  -0.021516   0.000811   0.001065  -0.025032
    11  C   -0.020526  -0.004242   0.000033  -0.000016   0.001110  -0.000001
    12  C    0.325531  -0.030901  -0.001138  -0.000484  -0.035185  -0.000000
    13  N    6.508056   0.325602  -0.035310  -0.031804   0.330925   0.000018
    14  C    0.325602   4.742895   0.359537  -0.034473  -0.047887  -0.002418
    15  C   -0.035310   0.359537   4.784524   0.364593  -0.033569  -0.000001
    16  C   -0.031804  -0.034473   0.364593   4.773898   0.359454   0.000000
    17  C    0.330925  -0.047887  -0.033569   0.359454   4.727980  -0.000000
    18  O    0.000018  -0.002418  -0.000001   0.000000  -0.000000   7.856337
    19  C   -0.000000  -0.000000   0.000000  -0.000000   0.000000  -0.001644
    20  H    0.000676  -0.019557  -0.003628   0.000030  -0.000022  -0.000905
    21  H    0.000053  -0.000721  -0.000319  -0.000006  -0.000007  -0.000006
    22  H   -0.023809   0.383227  -0.026948  -0.001042  -0.001275   0.001311
    23  H    0.000000  -0.000000   0.000000  -0.000000  -0.000000   0.000000
    24  H   -0.000000   0.000000  -0.000000   0.000000   0.000000  -0.000000
    25  H   -0.000000  -0.000000   0.000000  -0.000000   0.000000   0.000000
    26  H    0.000855   0.000012  -0.000000   0.000001  -0.000023   0.000000
    27  H   -0.000892   0.000113  -0.000000  -0.000000   0.000008  -0.000006
    28  H   -0.021260  -0.001425   0.000173   0.000606  -0.003688  -0.000000
    29  H   -0.021676   0.001611  -0.000031  -0.000060  -0.002094   0.000000
    30  H   -0.000128  -0.021106   0.383309  -0.022259   0.001083  -0.000000
    31  H    0.001098  -0.019466   0.383672  -0.020036   0.001337   0.000002
    32  H    0.001003   0.000960  -0.020724   0.384392  -0.020710  -0.000000
    33  H    0.000581   0.001389  -0.021677   0.384109  -0.021276  -0.000000
    34  H   -0.023863  -0.000323   0.000299  -0.024874   0.381992  -0.000000
    35  H   -0.015474   0.001798   0.001280  -0.020466   0.383220   0.000000
    36  H    0.000000   0.000000  -0.000000   0.000000  -0.000000  -0.000447
    37  H   -0.000000   0.000000   0.000000  -0.000000  -0.000000   0.000065
    38  H    0.000000   0.000000  -0.000000   0.000000   0.000000  -0.000313
              19         20         21         22         23         24
     1  C    0.381431  -0.000018   0.000001  -0.000001  -0.025034   0.001325
     2  C   -0.030278   0.000000   0.000000   0.000000   0.394239  -0.024831
     3  C    0.000882   0.000000   0.000000   0.000000  -0.026832   0.393657
     4  C    0.000012  -0.000001  -0.000039  -0.000000   0.001426  -0.025108
     5  C    0.000718   0.000039   0.002541  -0.000001   0.000048   0.001367
     6  C   -0.024015   0.000552  -0.000035   0.000070   0.001255   0.000008
     7  C   -0.002600  -0.025651   0.001301  -0.005099  -0.000014   0.000001
     8  O   -0.000001  -0.000169  -0.020849  -0.000004   0.000000  -0.000005
     9  C   -0.000000  -0.022809   0.379895   0.001105  -0.000000   0.000000
    10  C    0.000007   0.378888  -0.025496  -0.022998   0.000000  -0.000000
    11  C   -0.000000   0.001259  -0.026697   0.000018  -0.000000  -0.000000
    12  C    0.000000  -0.000006  -0.002045   0.001659  -0.000000   0.000000
    13  N   -0.000000   0.000676   0.000053  -0.023809   0.000000  -0.000000
    14  C   -0.000000  -0.019557  -0.000721   0.383227  -0.000000   0.000000
    15  C    0.000000  -0.003628  -0.000319  -0.026948   0.000000  -0.000000
    16  C   -0.000000   0.000030  -0.000006  -0.001042  -0.000000   0.000000
    17  C    0.000000  -0.000022  -0.000007  -0.001275  -0.000000   0.000000
    18  O   -0.001644  -0.000905  -0.000006   0.001311   0.000000  -0.000000
    19  C    4.713052  -0.000000  -0.000000   0.000000  -0.004252  -0.000016
    20  H   -0.000000   0.622654  -0.004482  -0.000264  -0.000000  -0.000000
    21  H   -0.000000  -0.004482   0.633591  -0.000019   0.000000  -0.000000
    22  H    0.000000  -0.000264  -0.000019   0.622628  -0.000000  -0.000000
    23  H   -0.004252  -0.000000   0.000000  -0.000000   0.605224  -0.003746
    24  H   -0.000016  -0.000000  -0.000000  -0.000000  -0.003746   0.594243
    25  H    0.000000  -0.000000  -0.000005  -0.000000  -0.000033  -0.003719
    26  H    0.000000  -0.000033  -0.003096   0.000003   0.000000  -0.000000
    27  H   -0.000000  -0.000005   0.001896  -0.000022   0.000000  -0.000000
    28  H    0.000000  -0.000009   0.000359  -0.000057   0.000000  -0.000000
    29  H   -0.000000   0.000003   0.000004  -0.000033  -0.000000  -0.000000
    30  H    0.000000  -0.000044  -0.000245   0.001851   0.000000  -0.000000
    31  H   -0.000000   0.000100   0.000015  -0.004451  -0.000000  -0.000000
    32  H    0.000000  -0.000001  -0.000000   0.000078   0.000000   0.000000
    33  H    0.000000  -0.000001   0.000002  -0.000011   0.000000  -0.000000
    34  H   -0.000000  -0.000000   0.000000   0.000300   0.000000  -0.000000
    35  H   -0.000000   0.000001   0.000000   0.000005   0.000000  -0.000000
    36  H    0.380544   0.000000   0.000000   0.000000   0.000077   0.000000
    37  H    0.382623   0.000000   0.000000  -0.000000   0.000159  -0.000003
    38  H    0.380955  -0.000000  -0.000000   0.000000   0.000065   0.000000
              25         26         27         28         29         30
     1  C    0.000038   0.000000  -0.000004  -0.000000  -0.000000   0.000000
     2  C    0.001390  -0.000000   0.000001   0.000000  -0.000000  -0.000000
     3  C   -0.024697   0.000000   0.000002   0.000000   0.000000   0.000000
     4  C    0.393421  -0.000005  -0.000060  -0.000000   0.000000  -0.000000
     5  C   -0.025335   0.000044   0.000287  -0.000001   0.000000  -0.000000
     6  C    0.001237   0.000010  -0.000131  -0.000000   0.000001  -0.000000
     7  C   -0.000019  -0.000006   0.000078   0.000001  -0.000002   0.000009
     8  O   -0.001095  -0.000508  -0.000718   0.000003  -0.000005  -0.000002
     9  C    0.000036  -0.021264  -0.021996  -0.002265   0.001281  -0.000349
    10  C    0.000000   0.001204  -0.001433   0.000064  -0.000005  -0.003142
    11  C   -0.000002   0.382711   0.380940  -0.025264  -0.021242   0.000040
    12  C    0.000000  -0.019708  -0.021221   0.377438   0.383632  -0.000323
    13  N   -0.000000   0.000855  -0.000892  -0.021260  -0.021676  -0.000128
    14  C   -0.000000   0.000012   0.000113  -0.001425   0.001611  -0.021106
    15  C    0.000000  -0.000000  -0.000000   0.000173  -0.000031   0.383309
    16  C   -0.000000   0.000001  -0.000000   0.000606  -0.000060  -0.022259
    17  C    0.000000  -0.000023   0.000008  -0.003688  -0.002094   0.001083
    18  O    0.000000   0.000000  -0.000006  -0.000000   0.000000  -0.000000
    19  C    0.000000   0.000000  -0.000000   0.000000  -0.000000   0.000000
    20  H   -0.000000  -0.000033  -0.000005  -0.000009   0.000003  -0.000044
    21  H   -0.000005  -0.003096   0.001896   0.000359   0.000004  -0.000245
    22  H   -0.000000   0.000003  -0.000022  -0.000057  -0.000033   0.001851
    23  H   -0.000033   0.000000   0.000000   0.000000  -0.000000   0.000000
    24  H   -0.003719  -0.000000  -0.000000  -0.000000  -0.000000  -0.000000
    25  H    0.590264   0.000001  -0.000002  -0.000000  -0.000000   0.000000
    26  H    0.000001   0.622623  -0.023685  -0.002447  -0.001846   0.000001
    27  H   -0.000002  -0.023685   0.623796   0.001931  -0.002994  -0.000002
    28  H   -0.000000  -0.002447   0.001931   0.661657  -0.026483  -0.000589
    29  H   -0.000000  -0.001846  -0.002994  -0.026483   0.625253   0.000006
    30  H    0.000000   0.000001  -0.000002  -0.000589   0.000006   0.642770
    31  H   -0.000000  -0.000000   0.000000  -0.000004   0.000001  -0.023807
    32  H    0.000000  -0.000000   0.000000  -0.000010  -0.000001   0.001699
    33  H   -0.000000  -0.000000  -0.000000  -0.000263   0.000019  -0.007152
    34  H   -0.000000   0.000000  -0.000000  -0.000039   0.000072  -0.000029
    35  H   -0.000000  -0.000002   0.000000  -0.000207  -0.000025  -0.000042
    36  H   -0.000000   0.000000  -0.000000  -0.000000  -0.000000   0.000000
    37  H    0.000000  -0.000000   0.000000   0.000000  -0.000000   0.000000
    38  H   -0.000000  -0.000000   0.000000   0.000000   0.000000  -0.000000
              31         32         33         34         35         36
     1  C   -0.000000   0.000000   0.000000   0.000000   0.000000  -0.021127
     2  C    0.000000  -0.000000  -0.000000  -0.000000  -0.000000   0.000480
     3  C    0.000000  -0.000000   0.000000   0.000000  -0.000000  -0.000023
     4  C   -0.000000   0.000000  -0.000000  -0.000000  -0.000000   0.000003
     5  C    0.000000  -0.000000   0.000000   0.000000   0.000000  -0.000004
     6  C    0.000000  -0.000000  -0.000000  -0.000000  -0.000000  -0.001392
     7  C   -0.000005   0.000000   0.000000   0.000000  -0.000000  -0.000039
     8  O   -0.000000   0.000000  -0.000000  -0.000000  -0.000000  -0.000000
     9  C    0.000017  -0.000000   0.000002  -0.000001  -0.000000  -0.000000
    10  C    0.000079  -0.000009  -0.000021   0.000001  -0.000021  -0.000003
    11  C   -0.000002   0.000000   0.000001  -0.000024   0.000047  -0.000000
    12  C   -0.000001  -0.000005  -0.000125   0.001848  -0.004923   0.000000
    13  N    0.001098   0.001003   0.000581  -0.023863  -0.015474   0.000000
    14  C   -0.019466   0.000960   0.001389  -0.000323   0.001798   0.000000
    15  C    0.383672  -0.020724  -0.021677   0.000299   0.001280  -0.000000
    16  C   -0.020036   0.384392   0.384109  -0.024874  -0.020466   0.000000
    17  C    0.001337  -0.020710  -0.021276   0.381992   0.383220  -0.000000
    18  O    0.000002  -0.000000  -0.000000  -0.000000   0.000000  -0.000447
    19  C   -0.000000   0.000000   0.000000  -0.000000  -0.000000   0.380544
    20  H    0.000100  -0.000001  -0.000001  -0.000000   0.000001   0.000000
    21  H    0.000015  -0.000000   0.000002   0.000000   0.000000   0.000000
    22  H   -0.004451   0.000078  -0.000011   0.000300   0.000005   0.000000
    23  H   -0.000000   0.000000   0.000000   0.000000   0.000000   0.000077
    24  H   -0.000000   0.000000  -0.000000  -0.000000  -0.000000   0.000000
    25  H   -0.000000   0.000000  -0.000000  -0.000000  -0.000000  -0.000000
    26  H   -0.000000  -0.000000  -0.000000   0.000000  -0.000002   0.000000
    27  H    0.000000   0.000000  -0.000000  -0.000000   0.000000  -0.000000
    28  H   -0.000004  -0.000010  -0.000263  -0.000039  -0.000207  -0.000000
    29  H    0.000001  -0.000001   0.000019   0.000072  -0.000025  -0.000000
    30  H   -0.023807   0.001699  -0.007152  -0.000029  -0.000042   0.000000
    31  H    0.629859  -0.005988   0.001301  -0.000000  -0.000021  -0.000000
    32  H   -0.005988   0.630866  -0.023326  -0.006120   0.001136  -0.000000
    33  H    0.001301  -0.023326   0.637075   0.001799  -0.005198  -0.000000
    34  H   -0.000000  -0.006120   0.001799   0.632765  -0.023925   0.000000
    35  H   -0.000021   0.001136  -0.005198  -0.023925   0.620839   0.000000
    36  H   -0.000000  -0.000000  -0.000000   0.000000   0.000000   0.604473
    37  H   -0.000000   0.000000   0.000000   0.000000   0.000000  -0.021713
    38  H    0.000000  -0.000000  -0.000000  -0.000000  -0.000000  -0.018358
              37         38
     1  C   -0.020597  -0.020997
     2  C   -0.005627   0.000905
     3  C    0.000061  -0.000023
     4  C   -0.000000   0.000002
     5  C   -0.000016   0.000005
     6  C    0.001123  -0.002262
     7  C    0.000015  -0.000090
     8  O    0.000000  -0.000000
     9  C    0.000000  -0.000000
    10  C    0.000000  -0.000003
    11  C    0.000000   0.000000
    12  C    0.000000  -0.000000
    13  N   -0.000000   0.000000
    14  C    0.000000   0.000000
    15  C    0.000000  -0.000000
    16  C   -0.000000   0.000000
    17  C   -0.000000   0.000000
    18  O    0.000065  -0.000313
    19  C    0.382623   0.380955
    20  H    0.000000  -0.000000
    21  H    0.000000  -0.000000
    22  H   -0.000000   0.000000
    23  H    0.000159   0.000065
    24  H   -0.000003   0.000000
    25  H    0.000000  -0.000000
    26  H   -0.000000  -0.000000
    27  H    0.000000   0.000000
    28  H    0.000000   0.000000
    29  H   -0.000000   0.000000
    30  H    0.000000  -0.000000
    31  H   -0.000000   0.000000
    32  H    0.000000  -0.000000
    33  H    0.000000  -0.000000
    34  H    0.000000  -0.000000
    35  H    0.000000  -0.000000
    36  H   -0.021713  -0.018358
    37  H    0.625835  -0.022302
    38  H   -0.022302   0.607875
 Mulliken charges:
               1
     1  C    0.035619
     2  C   -0.080266
     3  C   -0.048420
     4  C   -0.086682
     5  C    0.131991
     6  C   -0.066383
     7  C    0.186308
     8  O   -0.249460
     9  C    0.081870
    10  C   -0.072384
    11  C   -0.112376
    12  C   -0.017355
    13  N   -0.281453
    14  C    0.045816
    15  C   -0.112445
    16  C   -0.112367
    17  C   -0.022465
    18  O   -0.230990
    19  C   -0.177420
    20  H    0.073406
    21  H    0.064409
    22  H    0.073779
    23  H    0.057418
    24  H    0.066826
    25  H    0.068518
    26  H    0.065158
    27  H    0.064121
    28  H    0.041778
    29  H    0.064614
    30  H    0.048451
    31  H    0.056302
    32  H    0.056761
    33  H    0.052773
    34  H    0.060122
    35  H    0.061978
    36  H    0.077528
    37  H    0.060377
    38  H    0.074541
 Sum of Mulliken charges =  -0.00000
 Mulliken charges with hydrogens summed into heavy atoms:
               1
     1  C    0.035619
     2  C   -0.022848
     3  C    0.018405
     4  C   -0.018164
     5  C    0.131991
     6  C   -0.066383
     7  C    0.186308
     8  O   -0.249460
     9  C    0.146279
    10  C    0.001021
    11  C    0.016904
    12  C    0.089038
    13  N   -0.281453
    14  C    0.119595
    15  C   -0.007691
    16  C   -0.002832
    17  C    0.099636
    18  O   -0.230990
    19  C    0.035027
 Electronic spatial extent (au):  <R**2>=           5002.4065
 Charge=              0.0000 electrons
 Dipole moment (field-independent basis, Debye):
    X=             -1.0600    Y=             -1.3108    Z=             -0.0250  Tot=              1.6860
 Quadrupole moment (field-independent basis, Debye-Ang):
   XX=            -96.7110   YY=           -109.6554   ZZ=           -106.0801
   XY=              2.3764   XZ=              2.2561   YZ=             -1.6763
 Traceless Quadrupole moment (field-independent basis, Debye-Ang):
   XX=              7.4379   YY=             -5.5066   ZZ=             -1.9313
   XY=              2.3764   XZ=              2.2561   YZ=             -1.6763
 Octapole moment (field-independent basis, Debye-Ang**2):
  XXX=              4.8311  YYY=             -5.2182  ZZZ=             -6.8599  XYY=             -1.9115
  XXY=              0.6318  XXZ=              6.4272  XZZ=             -3.9804  YZZ=              2.0813
  YYZ=              5.2598  XYZ=              3.3628
 Hexadecapole moment (field-independent basis, Debye-Ang**3):
 XXXX=          -4547.0990 YYYY=          -1201.2458 ZZZZ=           -504.0459 XXXY=            -21.8220
 XXXZ=              3.2648 YYYX=             -7.0447 YYYZ=              2.3909 ZZZX=            -13.0283
 ZZZY=             -8.4178 XXYY=           -936.2013 XXZZ=           -880.7135 YYZZ=           -281.6404
 XXYZ=             -2.6929 YYXZ=              3.7995 ZZXY=              9.5639
 N-N= 1.498892532470D+03 E-N=-4.892940918843D+03  KE= 8.035524048730D+02
 ******************************Gaussian NBO Version 3.1******************************
             N A T U R A L   A T O M I C   O R B I T A L   A N D
          N A T U R A L   B O N D   O R B I T A L   A N A L Y S I S
 ******************************Gaussian NBO Version 3.1******************************
       /RESON  / : Allow strongly delocalized NBO set
       /NLMO   / : Form Natural Localized Molecular Orbitals
       /NMR /    : Analyze NMR Sheilding Tensor 

 Analyzing the SCF density

 Job title: Title Card Required                                             

 Storage needed:     43472 in NPA,     53775 in NBO,    102144 in NLMO ( 104850000 available)
 GSVD:  LWork=      -13908 too small for GESVD, short by       66690 words or       66690 for optimal perf.


 NATURAL POPULATIONS:  Natural atomic orbital occupancies 
                                                          
   NAO  Atom  No  lang   Type(AO)    Occupancy      Energy
 ----------------------------------------------------------
     1    C    1  S      Cor( 1S)     1.99991     -10.98210
     2    C    1  S      Val( 2S)     1.08199      -0.19875
     3    C    1  px     Val( 2p)     0.95682       0.15232
     4    C    1  py     Val( 2p)     0.94823       0.15077
     5    C    1  pz     Val( 2p)     0.93495       0.03739

     6    C    2  S      Cor( 1S)     1.99995     -10.94482
     7    C    2  S      Val( 2S)     1.07988      -0.18343
     8    C    2  px     Val( 2p)     0.97663       0.14541
     9    C    2  py     Val( 2p)     0.97406       0.15239
    10    C    2  pz     Val( 2p)     1.04418       0.01088

    11    C    3  S      Cor( 1S)     1.99994     -10.96215
    12    C    3  S      Val( 2S)     1.07964      -0.18698
    13    C    3  px     Val( 2p)     0.98234       0.13662
    14    C    3  py     Val( 2p)     0.98334       0.14360
    15    C    3  pz     Val( 2p)     0.96256       0.02364

    16    C    4  S      Cor( 1S)     1.99994     -10.94674
    17    C    4  S      Val( 2S)     1.07670      -0.18385
    18    C    4  px     Val( 2p)     0.97917       0.14224
    19    C    4  py     Val( 2p)     0.98954       0.14188
    20    C    4  pz     Val( 2p)     1.05036       0.00610

    21    C    5  S      Cor( 1S)     1.99978     -11.03213
    22    C    5  S      Val( 2S)     1.05867      -0.21264
    23    C    5  px     Val( 2p)     0.88659       0.13095
    24    C    5  py     Val( 2p)     0.92313       0.15664
    25    C    5  pz     Val( 2p)     0.94325       0.00620

    26    C    6  S      Cor( 1S)     1.99991     -10.95930
    27    C    6  S      Val( 2S)     1.08684      -0.20559
    28    C    6  px     Val( 2p)     0.98646       0.12677
    29    C    6  py     Val( 2p)     0.96838       0.14295
    30    C    6  pz     Val( 2p)     1.08728      -0.00309

    31    C    7  S      Cor( 1S)     1.99996     -11.05358
    32    C    7  S      Val( 2S)     1.07917      -0.24262
    33    C    7  px     Val( 2p)     0.93457       0.10676
    34    C    7  py     Val( 2p)     0.84903       0.18097
    35    C    7  pz     Val( 2p)     0.89348       0.00216

    36    O    8  S      Cor( 1S)     1.99999     -20.20909
    37    O    8  S      Val( 2S)     1.72904      -1.01871
    38    O    8  px     Val( 2p)     1.12345      -0.04510
    39    O    8  py     Val( 2p)     1.61264      -0.27042
    40    O    8  pz     Val( 2p)     1.78869      -0.34108

    41    C    9  S      Cor( 1S)     1.99987     -11.06172
    42    C    9  S      Val( 2S)     1.08095      -0.23855
    43    C    9  px     Val( 2p)     0.83060       0.09113
    44    C    9  py     Val( 2p)     0.96293       0.06894
    45    C    9  pz     Val( 2p)     0.97548       0.06330

    46    C   10  S      Cor( 1S)     1.99996     -11.01036
    47    C   10  S      Val( 2S)     1.10202      -0.23611
    48    C   10  px     Val( 2p)     0.98916       0.06330
    49    C   10  py     Val( 2p)     0.98018       0.07130
    50    C   10  pz     Val( 2p)     1.01780       0.05957

    51    C   11  S      Cor( 1S)     1.99997     -10.99213
    52    C   11  S      Val( 2S)     1.08736      -0.21044
    53    C   11  px     Val( 2p)     0.99396       0.07351
    54    C   11  py     Val( 2p)     1.02934       0.06722
    55    C   11  pz     Val( 2p)     0.98306       0.07585

    56    C   12  S      Cor( 1S)     1.99993     -11.01916
    57    C   12  S      Val( 2S)     1.07241      -0.20468
    58    C   12  px     Val( 2p)     0.98128       0.07318
    59    C   12  py     Val( 2p)     0.88687       0.10792
    60    C   12  pz     Val( 2p)     1.02177       0.06115

    61    N   13  S      Cor( 1S)     1.99999     -15.25163
    62    N   13  S      Val( 2S)     1.46041      -0.60702
    63    N   13  px     Val( 2p)     1.24674      -0.04376
    64    N   13  py     Val( 2p)     1.24333      -0.03731
    65    N   13  pz     Val( 2p)     1.31754      -0.06894

    66    C   14  S      Cor( 1S)     1.99993     -11.02660
    67    C   14  S      Val( 2S)     1.08612      -0.21936
    68    C   14  px     Val( 2p)     0.94124       0.09437
    69    C   14  py     Val( 2p)     1.01227       0.06802
    70    C   14  pz     Val( 2p)     0.86770       0.11202

    71    C   15  S      Cor( 1S)     1.99997     -10.97930
    72    C   15  S      Val( 2S)     1.08757      -0.19967
    73    C   15  px     Val( 2p)     0.97882       0.07659
    74    C   15  py     Val( 2p)     1.01763       0.08381
    75    C   15  pz     Val( 2p)     0.99895       0.08855

    76    C   16  S      Cor( 1S)     1.99998     -10.97876
    77    C   16  S      Val( 2S)     1.08398      -0.19536
    78    C   16  px     Val( 2p)     0.99460       0.08992
    79    C   16  py     Val( 2p)     1.02324       0.08413
    80    C   16  pz     Val( 2p)     0.97823       0.08265

    81    C   17  S      Cor( 1S)     1.99994     -11.00883
    82    C   17  S      Val( 2S)     1.07922      -0.20172
    83    C   17  px     Val( 2p)     0.87805       0.11088
    84    C   17  py     Val( 2p)     1.02309       0.06903
    85    C   17  pz     Val( 2p)     0.98855       0.08321

    86    O   18  S      Cor( 1S)     1.99999     -20.10995
    87    O   18  S      Val( 2S)     1.80625      -1.05745
    88    O   18  px     Val( 2p)     1.85529      -0.32778
    89    O   18  py     Val( 2p)     1.35861      -0.11205
    90    O   18  pz     Val( 2p)     1.22260      -0.12308

    91    C   19  S      Cor( 1S)     1.99997     -10.97324
    92    C   19  S      Val( 2S)     1.07815      -0.18372
    93    C   19  px     Val( 2p)     1.04305       0.07443
    94    C   19  py     Val( 2p)     0.98553       0.08677
    95    C   19  pz     Val( 2p)     1.03967       0.07681

    96    H   20  S      Val( 1S)     0.94779       0.05015

    97    H   21  S      Val( 1S)     0.97170       0.04132

    98    H   22  S      Val( 1S)     0.95881       0.06773

    99    H   23  S      Val( 1S)     0.96782       0.06886

   100    H   24  S      Val( 1S)     0.96124       0.06270

   101    H   25  S      Val( 1S)     0.95629       0.07445

   102    H   26  S      Val( 1S)     0.95546       0.06270

   103    H   27  S      Val( 1S)     0.95716       0.06458

   104    H   28  S      Val( 1S)     0.98613       0.04662

   105    H   29  S      Val( 1S)     0.96255       0.06039

   106    H   30  S      Val( 1S)     0.97143       0.05944

   107    H   31  S      Val( 1S)     0.96375       0.06522

   108    H   32  S      Val( 1S)     0.96305       0.06743

   109    H   33  S      Val( 1S)     0.96690       0.06418

   110    H   34  S      Val( 1S)     0.96753       0.06722

   111    H   35  S      Val( 1S)     0.96394       0.05801

   112    H   36  S      Val( 1S)     0.93885       0.08616

   113    H   37  S      Val( 1S)     0.95621       0.07592

   114    H   38  S      Val( 1S)     0.94187       0.08465


 Summary of Natural Population Analysis:                  
                                                          
                                       Natural Population 
                Natural  -----------------------------------------------
    Atom  No    Charge         Core      Valence    Rydberg      Total
 -----------------------------------------------------------------------
      C    1    0.07810      1.99991     3.92199    0.00000     5.92190
      C    2   -0.07469      1.99995     4.07474    0.00000     6.07469
      C    3   -0.00781      1.99994     4.00787    0.00000     6.00781
      C    4   -0.09572      1.99994     4.09578    0.00000     6.09572
      C    5    0.18859      1.99978     3.81163    0.00000     5.81141
      C    6   -0.12887      1.99991     4.12896    0.00000     6.12887
      C    7    0.24379      1.99996     3.75625    0.00000     5.75621
      O    8   -0.25381      1.99999     6.25382    0.00000     8.25381
      C    9    0.15016      1.99987     3.84997    0.00000     5.84984
      C   10   -0.08911      1.99996     4.08915    0.00000     6.08911
      C   11   -0.09368      1.99997     4.09371    0.00000     6.09368
      C   12    0.03775      1.99993     3.96232    0.00000     5.96225
      N   13   -0.26800      1.99999     5.26801    0.00000     7.26800
      C   14    0.09273      1.99993     3.90733    0.00000     5.90727
      C   15   -0.08296      1.99997     4.08298    0.00000     6.08296
      C   16   -0.08002      1.99998     4.08004    0.00000     6.08002
      C   17    0.03114      1.99994     3.96892    0.00000     5.96886
      O   18   -0.24274      1.99999     6.24275    0.00000     8.24274
      C   19   -0.14637      1.99997     4.14640    0.00000     6.14637
      H   20    0.05221      0.00000     0.94779    0.00000     0.94779
      H   21    0.02830      0.00000     0.97170    0.00000     0.97170
      H   22    0.04119      0.00000     0.95881    0.00000     0.95881
      H   23    0.03218      0.00000     0.96782    0.00000     0.96782
      H   24    0.03876      0.00000     0.96124    0.00000     0.96124
      H   25    0.04371      0.00000     0.95629    0.00000     0.95629
      H   26    0.04454      0.00000     0.95546    0.00000     0.95546
      H   27    0.04284      0.00000     0.95716    0.00000     0.95716
      H   28    0.01387      0.00000     0.98613    0.00000     0.98613
      H   29    0.03745      0.00000     0.96255    0.00000     0.96255
      H   30    0.02857      0.00000     0.97143    0.00000     0.97143
      H   31    0.03625      0.00000     0.96375    0.00000     0.96375
      H   32    0.03695      0.00000     0.96305    0.00000     0.96305
      H   33    0.03310      0.00000     0.96690    0.00000     0.96690
      H   34    0.03247      0.00000     0.96753    0.00000     0.96753
      H   35    0.03606      0.00000     0.96394    0.00000     0.96394
      H   36    0.06115      0.00000     0.93885    0.00000     0.93885
      H   37    0.04379      0.00000     0.95621    0.00000     0.95621
      H   38    0.05813      0.00000     0.94187    0.00000     0.94187
 =======================================================================
   * Total *   -0.00000     37.99888   100.00112    0.00000   138.00000

                                 Natural Population      
 --------------------------------------------------------
   Core                      37.99888 ( 99.9970% of  38)
   Valence                  100.00112 (100.0011% of 100)
   Natural Minimal Basis    138.00000 (100.0000% of 138)
   Natural Rydberg Basis      0.00000 (  0.0000% of 138)
 --------------------------------------------------------

    Atom  No          Natural Electron Configuration
 ----------------------------------------------------------------------------
      C    1      [core]2S( 1.08)2p( 2.84)
      C    2      [core]2S( 1.08)2p( 2.99)
      C    3      [core]2S( 1.08)2p( 2.93)
      C    4      [core]2S( 1.08)2p( 3.02)
      C    5      [core]2S( 1.06)2p( 2.75)
      C    6      [core]2S( 1.09)2p( 3.04)
      C    7      [core]2S( 1.08)2p( 2.68)
      O    8      [core]2S( 1.73)2p( 4.52)
      C    9      [core]2S( 1.08)2p( 2.77)
      C   10      [core]2S( 1.10)2p( 2.99)
      C   11      [core]2S( 1.09)2p( 3.01)
      C   12      [core]2S( 1.07)2p( 2.89)
      N   13      [core]2S( 1.46)2p( 3.81)
      C   14      [core]2S( 1.09)2p( 2.82)
      C   15      [core]2S( 1.09)2p( 3.00)
      C   16      [core]2S( 1.08)2p( 3.00)
      C   17      [core]2S( 1.08)2p( 2.89)
      O   18      [core]2S( 1.81)2p( 4.44)
      C   19      [core]2S( 1.08)2p( 3.07)
      H   20            1S( 0.95)
      H   21            1S( 0.97)
      H   22            1S( 0.96)
      H   23            1S( 0.97)
      H   24            1S( 0.96)
      H   25            1S( 0.96)
      H   26            1S( 0.96)
      H   27            1S( 0.96)
      H   28            1S( 0.99)
      H   29            1S( 0.96)
      H   30            1S( 0.97)
      H   31            1S( 0.96)
      H   32            1S( 0.96)
      H   33            1S( 0.97)
      H   34            1S( 0.97)
      H   35            1S( 0.96)
      H   36            1S( 0.94)
      H   37            1S( 0.96)
      H   38            1S( 0.94)


 NATURAL BOND ORBITAL ANALYSIS:

                       Occupancies       Lewis Structure    Low   High
           Occ.    -------------------  -----------------   occ   occ
  Cycle   Thresh.   Lewis   Non-Lewis     CR  BD  3C  LP    (L)   (NL)   Dev
 =============================================================================
   1(1)    1.90   134.42348   3.57652     19  43   0   7     3      3    0.45
   2(2)    1.90   134.42348   3.57652     19  43   0   7     3      3    0.45
   3(1)    1.80   134.34699   3.65301     19  42   0   8     3      3    0.45
   4(2)    1.80   134.34699   3.65301     19  42   0   8     3      3    0.45
   5(1)    1.70   134.34699   3.65301     19  42   0   8     3      3    0.45
   6(2)    1.70   134.34699   3.65301     19  42   0   8     3      3    0.45
   7(1)    1.60   135.51854   2.48146     19  44   0   6     1      3    0.43
   8(2)    1.60   136.13084   1.86916     19  45   0   5     0      3    0.43
   9(3)    1.60   136.08975   1.91025     19  45   0   5     0      3    0.45
  10(4)    1.60   136.13084   1.86916     19  45   0   5     0      3    0.43
  11(1)    1.50   136.13084   1.86916     19  45   0   5     0      3    0.43
  12(2)    1.50   136.08975   1.91025     19  45   0   5     0      3    0.45
  13(3)    1.50   136.13084   1.86916     19  45   0   5     0      3    0.43
  14(1)    1.60   136.13084   1.86916     19  45   0   5     0      3    0.43
 -----------------------------------------------------------------------------

 Structure accepted: RESONANCE keyword permits strongly delocalized structure

 --------------------------------------------------------
   Core                     37.99887 ( 99.997% of  38)
   Valence Lewis            98.13196 ( 98.132% of 100)
  ==================       ============================
   Total Lewis             136.13084 ( 98.646% of 138)
  -----------------------------------------------------
   Valence non-Lewis         1.86916 (  1.354% of 138)
   Rydberg non-Lewis         0.00000 (  0.000% of 138)
  ==================       ============================
   Total non-Lewis           1.86916 (  1.354% of 138)
 --------------------------------------------------------


       (Occupancy)   Bond orbital/ Coefficients/ Hybrids
 ---------------------------------------------------------------------------------
     1. (1.98532) BD ( 1) C   1 - C   2  
                ( 49.99%)   0.7071* C   1 s( 33.74%)p 1.96( 66.26%)
                                            0.0000  0.5809  0.7022 -0.3907  0.1298
                ( 50.01%)   0.7071* C   2 s( 34.45%)p 1.90( 65.55%)
                                            0.0001  0.5870 -0.6991  0.3929 -0.1108
     2. (1.65847) BD ( 2) C   1 - C   2  
                ( 45.51%)   0.6746* C   1 s(  0.00%)p 1.00(100.00%)
                                            0.0000  0.0000 -0.2758 -0.1822  0.9438
                ( 54.49%)   0.7381* C   2 s(  0.00%)p 1.00(100.00%)
                                           -0.0000 -0.0023 -0.2587 -0.1897  0.9471
     3. (1.98104) BD ( 1) C   1 - C   6  
                ( 49.45%)   0.7032* C   1 s( 34.62%)p 1.89( 65.38%)
                                            0.0001  0.5884 -0.6551 -0.3915 -0.2671
                ( 50.55%)   0.7110* C   6 s( 35.56%)p 1.81( 64.44%)
                                            0.0000  0.5963  0.6244  0.4334  0.2582
     4. (1.98735) BD ( 1) C   1 - C  19  
                ( 50.17%)   0.7083* C   1 s( 31.64%)p 2.16( 68.36%)
                                           -0.0000  0.5625 -0.0399  0.8130  0.1453
                ( 49.83%)   0.7059* C  19 s( 25.58%)p 2.91( 74.42%)
                                            0.0001  0.5057  0.0181 -0.8483 -0.1558
     5. (1.98979) BD ( 1) C   2 - C   3  
                ( 49.55%)   0.7039* C   2 s( 34.20%)p 1.92( 65.80%)
                                            0.0001  0.5848  0.0657 -0.7963 -0.1402
                ( 50.45%)   0.7103* C   3 s( 34.33%)p 1.91( 65.67%)
                                            0.0000  0.5859 -0.0502  0.7962  0.1421
     6. (1.98879) BD ( 1) C   2 - H  23  
                ( 51.63%)   0.7186* C   2 s( 31.35%)p 2.19( 68.65%)
                                           -0.0001  0.5599  0.6633  0.4190  0.2665
                ( 48.37%)   0.6955* H  23 s(100.00%)
[...]
                         Standard Origin              Atomic Origin
 NLMO      Total    Paramagnetic  Diamagnetic   Paramagnetic  Diamagnetic
    3      -0.5079       -0.6019       0.0940        -1.1735       0.6655
    4       0.1431       -0.9976       1.1407        -0.8432       0.9863
    8       0.3982       -0.2080       0.6062        -0.6455       1.0437
   13       1.1254        0.1313       0.9941        -0.3421       1.4675
   15     -10.3432      -10.4784       0.1352       -11.1176       0.7744
   16     -10.1143      -10.5371       0.4228       -10.8117       0.6973
   17    -117.8338     -127.3268       9.4930      -127.2512       9.4173
   18     -26.9050      -52.5590      25.6540       -51.9698      25.0648
   20      -1.2392       -1.3945       0.1553        -1.2485       0.0094
   23      -0.2826       -0.5069       0.2243        -1.3426       1.0600
   43      -0.3271       -1.7968       1.4697        -1.3092       0.9821
   45      -0.3820       -1.5099       1.1278        -1.3365       0.9545
   63     271.9192       -0.0055     271.9247        -0.0053     271.9245
   68     -34.1089      -69.2622      35.1533       -69.1823      35.0734
   69    -411.9877     -448.9804      36.9927      -451.5678      39.5800
 Sum     -340.4460     -726.0335     385.5876      -730.1468     389.7008

 Contributions to Isotropic shielding for atom   19 (   218.0142 ppm):
                         Standard Origin              Atomic Origin
 NLMO      Total    Paramagnetic  Diamagnetic   Paramagnetic  Diamagnetic
    1      -1.9140       -1.3684      -0.5456        -2.4064       0.4924
    2      -0.8409       -0.7462      -0.0947        -2.4936       1.6527
    3      -1.0212       -1.4990       0.4778        -1.3240       0.3028
    4       3.4716      -10.7526      14.2243        -3.4788       6.9504
    6      -0.6501       -1.6050       0.9549        -1.6872       1.0371
    8       0.8336       -0.3304       1.1640        -0.3503       1.1839
   15      -0.3586        0.0282      -0.3868        -1.2114       0.8529
   17      -0.4206       -0.3058      -0.1148        -1.1518       0.7312
   18       0.2651        0.1847       0.0804        -1.2193       1.4844
   43       7.2107       -2.2167       9.4274        -4.2374      11.4481
   44       4.1407        4.5007      -0.3600        -7.0289      11.1696
   45       7.0136       -7.6685      14.6821        -4.4308      11.4444
   64     200.0784       -0.0032     200.0816         0.0032     200.0752
 Sum      217.8082      -21.7822     239.5904       -31.0168     248.8250

 Contributions to Isotropic shielding for atom   20 (    31.1063 ppm):
                         Standard Origin              Atomic Origin
 NLMO      Total    Paramagnetic  Diamagnetic   Paramagnetic  Diamagnetic
   13       0.1064       -0.4509       0.5573        -1.1242       1.2306
   16       1.9388        1.7334       0.2054         0.9871       0.9518
   18      -0.0099       -0.1678       0.1579        -1.1694       1.1595
   19       0.0614       -0.2245       0.2859        -0.9613       1.0227
   20       1.2756        1.0189       0.2568         0.4404       0.8352
   22       0.0420       -0.4076       0.4496        -0.9929       1.0349
   23       1.1981        1.5107      -0.3127         0.2591       0.9389
   24      25.7301       -0.0287      25.7587         0.3445      25.3856
   33      -0.0763       -0.3926       0.3163        -1.0189       0.9426
   36       0.1311       -0.9000       1.0311        -0.7518       0.8829
 Sum       30.3974        1.6910      28.7064        -3.9875      34.3848

 Contributions to Isotropic shielding for atom   21 (    30.4295 ppm):
                         Standard Origin              Atomic Origin
 NLMO      Total    Paramagnetic  Diamagnetic   Paramagnetic  Diamagnetic
   13       0.1694       -0.3889       0.5583        -0.8637       1.0331
   19       0.9097        1.3547      -0.4450        -1.1934       2.1031
   20       0.8283        0.3913       0.4369        -0.2283       1.0565
   21       0.6339        0.8902      -0.2563        -0.4757       1.1095
   22      26.3297        0.2313      26.0985         0.8172      25.5126
   36      -0.2961       -1.4572       1.1611        -0.6266       0.3305
 Sum       28.5749        1.0214      27.5535        -2.5704      31.1453

 Contributions to Isotropic shielding for atom   22 (    30.4334 ppm):
                         Standard Origin              Atomic Origin
 NLMO      Total    Paramagnetic  Diamagnetic   Paramagnetic  Diamagnetic
   16      -0.1297        0.2282      -0.3579        -1.1826       1.0529
   17      -0.5020       -0.6362       0.1341        -1.4041       0.9021
   18       0.2624       -0.3567       0.6191        -1.4088       1.6712
   23       1.1905       -0.3130       1.5035         0.1653       1.0252
   31       0.9353        0.7490       0.1863        -0.3350       1.2702
   33       0.1356        1.7054      -1.5698        -0.6341       0.7697
   34      25.9220        0.1771      25.7448         0.6774      25.2445
   37       0.1099       -1.0814       1.1914        -0.9108       1.0207
   38       0.3480       -1.0708       1.4189        -0.5338       0.8819
   41      -0.0160       -1.2644       1.2484        -0.8436       0.8276
 Sum       28.2560       -1.8628      30.1187        -6.4100      34.6659

 Contributions to Isotropic shielding for atom   23 (    25.8749 ppm):
                         Standard Origin              Atomic Origin
 NLMO      Total    Paramagnetic  Diamagnetic   Paramagnetic  Diamagnetic
    1      -1.3812       -2.7703       1.3891        -1.9590       0.5778
    2       0.8813        1.4666      -0.5852        -2.4760       3.3574
    4      -0.6925        0.7296      -1.4221        -1.7731       1.0805
    5      -2.0217       -1.2269      -0.7948        -2.7214       0.6997
    6      27.0170        0.9536      26.0633         1.5359      25.4810
    9      -0.0770       -0.2225       0.1455        -1.1812       1.1041
   13       0.5396        0.8484      -0.3087        -0.7145       1.2541
   44      -0.1319       -1.1811       1.0491        -0.9192       0.7872
 Sum       24.1335       -1.4026      25.5361       -10.2084      34.3419

 Contributions to Isotropic shielding for atom   24 (    25.2964 ppm):
                         Standard Origin              Atomic Origin
 NLMO      Total    Paramagnetic  Diamagnetic   Paramagnetic  Diamagnetic
    2       1.2765        0.8318       0.4447         0.2155       1.0610
    5      -2.0388       -1.9928      -0.0459        -2.7746       0.7359
    6      -0.1076        0.1162      -0.2238        -1.2363       1.1287
    7      -1.8998       -2.6240       0.7242        -2.6163       0.7165
    8       0.4502        1.3380      -0.8878        -2.3747       2.8249
    9      26.8994        1.1014      25.7980         1.5977      25.3017
   11      -0.1130        0.5974      -0.7103        -1.2211       1.1081
   13       0.4986        0.7497      -0.2511        -0.8761       1.3747
 Sum       24.9657        0.1177      24.8480        -9.2859      34.2515

 Contributions to Isotropic shielding for atom   25 (    25.7184 ppm):
                         Standard Origin              Atomic Origin
 NLMO      Total    Paramagnetic  Diamagnetic   Paramagnetic  Diamagnetic
    2       1.2375       -0.3920       1.6295         0.0048       1.2327
    7      -1.8120       -0.9929      -0.8191        -2.4976       0.6856
    8       0.2065        0.1607       0.0458        -3.1968       3.4033
    9      -0.0530       -0.9257       0.8727        -1.1487       1.0957
   10      -0.9678       -2.5463       1.5786        -1.5242       0.5564
   11      26.5494        1.0677      25.4817         1.3163      25.2331
   14      -0.5113        0.4457      -0.9571        -2.1122       1.6009
   65      -0.1990       -0.4406       0.2416         0.8050      -1.0040
 Sum       24.4502       -3.6235      28.0737        -8.3534      32.8036

 Contributions to Isotropic shielding for atom   26 (    32.1126 ppm):
                         Standard Origin              Atomic Origin
 NLMO      Total    Paramagnetic  Diamagnetic   Paramagnetic  Diamagnetic
   19      -0.0532        0.1039      -0.1571        -1.3254       1.2722
   21       1.2300        0.7875       0.4425         0.3724       0.8576
   25       0.9883        1.8607      -0.8724         0.0706       0.9177
   26      26.0667        0.0291      26.0376         0.4450      25.6217
   27       2.1509        0.9770       1.1739         0.2773       1.8736
 Sum       30.3827        3.7582      26.6245        -0.1602      30.5428

 Contributions to Isotropic shielding for atom   27 (    32.8401 ppm):
                         Standard Origin              Atomic Origin
 NLMO      Total    Paramagnetic  Diamagnetic   Paramagnetic  Diamagnetic
   13      -0.2734       -0.6815       0.4080        -1.4833       1.2099
   21       1.5668       -0.2851       1.8518         0.8614       0.7054
   25       1.2074        0.5989       0.6085         0.2991       0.9082
   26       1.9900        1.3004       0.6896         0.1237       1.8664
   27      25.9797        0.2942      25.6854         0.3680      25.6117
   28       0.1990       -0.9930       1.1920        -0.9078       1.1067
 Sum       30.6694        0.2340      30.4354        -0.7389      31.4082

 Contributions to Isotropic shielding for atom   28 (    32.5040 ppm):
                         Standard Origin              Atomic Origin
 NLMO      Total    Paramagnetic  Diamagnetic   Paramagnetic  Diamagnetic
   25       1.0143        0.1792       0.8351         0.0642       0.9501
   29      26.7652        0.2139      26.5513         0.7538      26.0114
   30       1.7354        2.0947      -0.3593        -0.0788       1.8142
   40      -0.0952       -1.2827       1.1875        -0.8263       0.7311
 Sum       29.4197        1.2051      28.2146        -0.0871      29.5068

 Contributions to Isotropic shielding for atom   29 (    31.8342 ppm):
                         Standard Origin              Atomic Origin
 NLMO      Total    Paramagnetic  Diamagnetic   Paramagnetic  Diamagnetic
   25       0.9935        0.3695       0.6239        -0.0757       1.0692
   27       0.1854        0.2373      -0.0519        -0.8400       1.0254
   28       0.9144        0.6841       0.2303        -0.4069       1.3213
   29       1.4764        1.8420      -0.3656        -0.2310       1.7075
   30      26.2246        0.2030      26.0217         0.6744      25.5502
   32      -0.1821        0.4391      -0.6212        -1.0286       0.8466
   42      -0.0687       -1.6367       1.5680        -0.9122       0.8435
 Sum       29.5436        2.1384      27.4052        -2.8201      32.3637

 Contributions to Isotropic shielding for atom   30 (    32.0560 ppm):
                         Standard Origin              Atomic Origin
 NLMO      Total    Paramagnetic  Diamagnetic   Paramagnetic  Diamagnetic
   23      -0.1913        0.2571      -0.4484        -1.0954       0.9041
   33       1.8884       -1.3834       3.2718         1.2390       0.6493
   35       0.5631        1.5405      -0.9774        -0.2919       0.8550
   36      26.3709        0.1578      26.2131         0.3850      25.9859
   37       1.9524        1.4031       0.5493         0.1371       1.8153
   38       0.5547       -0.8385       1.3932         0.2480       0.3067
   40       0.0071       -1.6445       1.6516        -1.1642       1.1712
 Sum       31.1452       -0.5079      31.6531        -0.5423      31.6875

 Contributions to Isotropic shielding for atom   31 (    31.8523 ppm):
                         Standard Origin              Atomic Origin
 NLMO      Total    Paramagnetic  Diamagnetic   Paramagnetic  Diamagnetic
   33       1.7792       -0.6101       2.3893         1.0254       0.7537
   34       0.0230        0.5699      -0.5469        -1.0261       1.0491
   35       0.3522        2.3366      -1.9845        -0.4813       0.8334
   36       2.0879        1.2415       0.8465         0.3139       1.7741
   37      26.2456        0.0221      26.2235         0.4551      25.7904
   38       0.4072       -0.7440       1.1513         0.2552       0.1520
   39       0.0383       -1.2189       1.2572        -1.0981       1.1365
 Sum       30.9334        1.5971      29.3364        -0.5559      31.4893

 Contributions to Isotropic shielding for atom   32 (    32.0035 ppm):
                         Standard Origin              Atomic Origin
 NLMO      Total    Paramagnetic  Diamagnetic   Paramagnetic  Diamagnetic
   31      -0.2598        0.4869      -0.7467        -1.1404       0.8806
   35       1.2350        0.0501       1.1849         0.3801       0.8550
   37      -0.0796        0.8171      -0.8967        -1.1922       1.1126
   39      26.3403       -0.1935      26.5339         0.5620      25.7783
   40       1.8838        3.1382      -1.2544         0.1021       1.7817
   41      -0.0999        0.3768      -0.4767        -1.2569       1.1570
 Sum       29.0198        4.6755      24.3443        -2.5453      31.5651

 Contributions to Isotropic shielding for atom   33 (    32.0454 ppm):
                         Standard Origin              Atomic Origin
 NLMO      Total    Paramagnetic  Diamagnetic   Paramagnetic  Diamagnetic
   31      -0.2796        0.4137      -0.6933        -1.0287       0.7491
   35       1.2636       -0.3680       1.6317         0.3723       0.8913
   36      -0.2008        0.7718      -0.9726        -1.3810       1.1802
   38       1.0651        0.4316       0.6334         0.2449       0.8202
   39       1.8440        3.2696      -1.4255         0.0443       1.7997
   40      26.4075       -0.1098      26.5173         0.5252      25.8823
   42      -0.0415        0.2372      -0.2786        -1.1234       1.0819
 Sum       30.0584        4.6460      25.4124        -2.3463      32.4047

 Contributions to Isotropic shielding for atom   34 (    31.4556 ppm):
                         Standard Origin              Atomic Origin
 NLMO      Total    Paramagnetic  Diamagnetic   Paramagnetic  Diamagnetic
   32       1.7464       -1.2635       3.0099         0.4371       1.3093
   33      -0.1719        0.3425      -0.5145        -1.0052       0.8332
   35       0.3299       -0.9530       1.2829        -0.0859       0.4158
   39       0.0052       -0.8796       0.8848        -1.1345       1.1396
   41      26.2823        0.2629      26.0194         0.6640      25.6183
   42       1.4292        2.0580      -0.6288        -0.5162       1.9455
 Sum       29.6211       -0.4326      30.0537        -1.6407      31.2618

 Contributions to Isotropic shielding for atom   35 (    31.8159 ppm):
                         Standard Origin              Atomic Origin
 NLMO      Total    Paramagnetic  Diamagnetic   Paramagnetic  Diamagnetic
   28      -0.4109        1.2277      -1.6386        -1.6038       1.1929
   32       1.4978       -1.0497       2.5476         0.6003       0.8975
   35       0.2729       -0.8201       1.0930         0.1190       0.1539
   38      -0.0346        1.5099      -1.5445        -0.8056       0.7709
   40       0.0388       -0.5022       0.5411        -1.0672       1.1060
   41       1.6915        2.0071      -0.3157        -0.1538       1.8452
   42      26.3446        0.1561      26.1885         0.8002      25.5443
   67       1.0885       -0.2701       1.3586         1.1931      -0.1045
 Sum       30.4886        2.2586      28.2300        -0.9177      31.4063

 Contributions to Isotropic shielding for atom   36 (    30.7230 ppm):
                         Standard Origin              Atomic Origin
 NLMO      Total    Paramagnetic  Diamagnetic   Paramagnetic  Diamagnetic
    2      -0.8805       -0.4010      -0.4795        -1.8419       0.9614
    4       1.7615       -0.0733       1.8348         0.8862       0.8754
    8       0.5971       -0.1650       0.7621        -0.4709       1.0680
   15      -0.3006        0.1153      -0.4159        -1.1947       0.8941
   18       0.1447        0.2027      -0.0580        -1.1260       1.2708
   43      25.6662        0.1902      25.4761         0.3534      25.3128
   44       1.7805        2.7181      -0.9376        -0.0757       1.8562
   45       2.2675        0.2200       2.0475         0.4716       1.7959
 Sum       31.0366        2.8070      28.2296        -2.9981      34.0347

 Contributions to Isotropic shielding for atom   37 (    30.9695 ppm):
                         Standard Origin              Atomic Origin
 NLMO      Total    Paramagnetic  Diamagnetic   Paramagnetic  Diamagnetic
    1      -0.9685        0.1285      -1.0969        -1.8774       0.9089
    2      -0.6846        0.0009      -0.6855        -2.2901       1.6055
    4       1.0312        0.8717       0.1595         0.2677       0.7635
    6      -0.0154       -1.4633       1.4478        -0.9531       0.9377
   18       0.0785        0.0694       0.0090        -0.9362       1.0146
   43       2.1407        2.6182      -0.4775         0.1753       1.9654
   44      26.2746       -0.1154      26.3900         0.5165      25.7581
   45       2.0441        1.6003       0.4438         0.0569       1.9873
 Sum       29.9007        3.7104      26.1903        -5.0403      34.9410

 Contributions to Isotropic shielding for atom   38 (    31.0752 ppm):
                         Standard Origin              Atomic Origin
 NLMO      Total    Paramagnetic  Diamagnetic   Paramagnetic  Diamagnetic
    2      -0.6758       -0.6062      -0.0697        -1.5342       0.8583
    4       1.8775       -1.0866       2.9641         1.0156       0.8619
    8       0.5317       -0.2761       0.8078        -0.5690       1.1007
   15      -0.2432        0.1651      -0.4083        -1.1545       0.9113
   18       0.1155        0.0267       0.0888        -1.2386       1.3541
   43       2.1733        0.4437       1.7297         0.3407       1.8326
   44       1.8387        1.9386      -0.0998        -0.0608       1.8995
   45      25.7188        0.3242      25.3946         0.3406      25.3782
 Sum       31.3365        0.9293      30.4072        -2.8601      34.1966
 
 1\1\GINC-GNOSIE-MM\SP\RHF\STO-3G\C16H19N1O2\MBENIDD\30-Apr-2026\0\\# n
 mr=giao hf/sto-3g pop=nbo\\Title Card Required\\0,1\C,0,0.,0.,0.\C,0,1
 .4074,0.,0.\C,0,2.1259,1.1939,0.\C,0,1.4476,2.407,-0.0131\C,0,0.0522,2
 .4279,-0.0287\C,0,-0.6799,1.2363,0.0056\C,0,-2.1545,1.3437,0.0986\O,0,
 -0.5066,3.6754,-0.0626\C,0,-1.8139,3.7169,-0.6379\C,0,-2.7722,2.727,0.
 0042\C,0,-1.7628,3.6075,-2.1625\C,0,-3.1623,3.7498,-2.7407\N,0,-4.0625
 ,2.7229,-2.2049\C,0,-4.124,2.6805,-0.726\C,0,-5.068,3.8296,-0.3661\C,0
 ,-6.039,3.903,-1.54\C,0,-5.4541,2.9853,-2.6094\O,0,-2.8408,0.3541,0.34
 67\C,0,-0.7058,-1.3292,0.0096\H,0,-2.9312,3.0248,1.0506\H,0,-2.1805,4.
 7257,-0.4064\H,0,-4.6432,1.7502,-0.4561\H,0,1.9559,-0.9407,0.0058\H,0,
 3.2128,1.1765,0.0059\H,0,2.0048,3.3403,-0.0219\H,0,-1.1071,4.3886,-2.5
 663\H,0,-1.319,2.6559,-2.4795\H,0,-3.5326,4.7642,-2.544\H,0,-3.1018,3.
 6406,-3.8303\H,0,-4.5381,4.7834,-0.265\H,0,-5.5928,3.6416,0.5765\H,0,-
 7.0411,3.5719,-1.2478\H,0,-6.1156,4.9347,-1.9005\H,0,-6.0017,2.0345,-2
 .6144\H,0,-5.5449,3.4053,-3.6174\H,0,-1.2074,-1.4898,0.9688\H,0,-0.001
 4,-2.1566,-0.1316\H,0,-1.4269,-1.3897,-0.8118\\Version=EM64L-G16RevB.0
 1\State=1-A\HF=-811.0557747\RMSD=5.630e-09\Dipole=-0.111926,0.6230945,
 -0.1979959\Quadrupole=2.2548257,-0.9917644,-1.2630613,-5.164492,-0.013
 5185,-1.2982473\PG=C01 [X(C16H19N1O2)]\\@


 IF OTHER PEOPLE ARE GOING TO TALK, CONVERSATION IS SIMPLY IMPOSSIBLE.

                                               -- WHISTLER'S PRINCIPLE
 Job cpu time:       0 days  0 hours  3 minutes 38.2 seconds.
 Elapsed time:       0 days  0 hours  1 minutes 56.3 seconds.
 File lengths (MBytes):  RWF=     14 Int=      0 D2E=      0 Chk=      2 Scr=      1
 Normal termination of Gaussian 16 at Thu Apr 30 09:30:23 2026.
