 Entering Gaussian System, Link 0=g16
 Input=2_isoelaeocarpine_c_4.gjf
 Output=2_isoelaeocarpine_c_4.log
 Initial command:
 /opt/gaussian/g16/l1.exe "/home/mbenidd/Bureau/Elaeocarpines/HF_NMR/Isoelaeocarpine/2_isoelaeocarpine_c_4/Gau-13021.inp" -scrdir="/home/mbenidd/Bureau/Elaeocarpines/HF_NMR/Isoelaeocarpine/2_isoelaeocarpine_c_4/"
 Entering Link 1 = /opt/gaussian/g16/l1.exe PID=     13023.
  
 Copyright (c) 1988-2017, Gaussian, Inc.  All Rights Reserved.
  
 This is part of the Gaussian(R) 16 program.  It is based on
 the Gaussian(R) 09 system (copyright 2009, Gaussian, Inc.),
 the Gaussian(R) 03 system (copyright 2003, Gaussian, Inc.),
 the Gaussian(R) 98 system (copyright 1998, Gaussian, Inc.),
 the Gaussian(R) 94 system (copyright 1995, Gaussian, Inc.),
 the Gaussian 92(TM) system (copyright 1992, Gaussian, Inc.),
 the Gaussian 90(TM) system (copyright 1990, Gaussian, Inc.),
 the Gaussian 88(TM) system (copyright 1988, Gaussian, Inc.),
 the Gaussian 86(TM) system (copyright 1986, Carnegie Mellon
 University), and the Gaussian 82(TM) system (copyright 1983,
 Carnegie Mellon University). Gaussian is a federally registered
 trademark of Gaussian, Inc.
  
 This software contains proprietary and confidential information,
 including trade secrets, belonging to Gaussian, Inc.
  
 This software is provided under written license and may be
 used, copied, transmitted, or stored only in accord with that
 written license.
  
 The following legend is applicable only to US Government
 contracts under FAR:
  
                    RESTRICTED RIGHTS LEGEND
  
 Use, reproduction and disclosure by the US Government is
 subject to restrictions as set forth in subparagraphs (a)
 and (c) of the Commercial Computer Software - Restricted
 Rights clause in FAR 52.227-19.
  
 Gaussian, Inc.
 340 Quinnipiac St., Bldg. 40, Wallingford CT 06492
  
  
 ---------------------------------------------------------------
 Warning -- This program may not be used in any manner that
 competes with the business of Gaussian, Inc. or will provide
 assistance to any competitor of Gaussian, Inc.  The licensee
 of this program is prohibited from giving any competitor of
 Gaussian, Inc. access to this program.  By using this program,
 the user acknowledges that Gaussian, Inc. is engaged in the
 business of creating and licensing software in the field of
 computational chemistry and represents and warrants to the
 licensee that it is not a competitor of Gaussian, Inc. and that
 it will not use this program in any manner prohibited above.
 ---------------------------------------------------------------
  

 Cite this work as:
 Gaussian 16, Revision B.01,
 M. J. Frisch, G. W. Trucks, H. B. Schlegel, G. E. Scuseria, 
 M. A. Robb, J. R. Cheeseman, G. Scalmani, V. Barone, 
 G. A. Petersson, H. Nakatsuji, X. Li, M. Caricato, A. V. Marenich, 
 J. Bloino, B. G. Janesko, R. Gomperts, B. Mennucci, H. P. Hratchian, 
 J. V. Ortiz, A. F. Izmaylov, J. L. Sonnenberg, D. Williams-Young, 
 F. Ding, F. Lipparini, F. Egidi, J. Goings, B. Peng, A. Petrone, 
 T. Henderson, D. Ranasinghe, V. G. Zakrzewski, J. Gao, N. Rega, 
 G. Zheng, W. Liang, M. Hada, M. Ehara, K. Toyota, R. Fukuda, 
 J. Hasegawa, M. Ishida, T. Nakajima, Y. Honda, O. Kitao, H. Nakai, 
 T. Vreven, K. Throssell, J. A. Montgomery, Jr., J. E. Peralta, 
 F. Ogliaro, M. J. Bearpark, J. J. Heyd, E. N. Brothers, K. N. Kudin, 
 V. N. Staroverov, T. A. Keith, R. Kobayashi, J. Normand, 
 K. Raghavachari, A. P. Rendell, J. C. Burant, S. S. Iyengar, 
 J. Tomasi, M. Cossi, J. M. Millam, M. Klene, C. Adamo, R. Cammi, 
 J. W. Ochterski, R. L. Martin, K. Morokuma, O. Farkas, 
 J. B. Foresman, and D. J. Fox, Gaussian, Inc., Wallingford CT, 2016.
 
 ******************************************
 Gaussian 16:  EM64L-G16RevB.01 20-Dec-2017
                30-Apr-2026 
 ******************************************
 %nprocshared=4
 Will use up to    4 processors via shared memory.
 ----------------------------
 # nmr=giao hf/sto-3g pop=nbo
 ----------------------------
 1/38=1,172=1/1;
 2/12=2,17=6,18=5,40=1/2;
 3/6=3,11=9,25=1,30=1/1,2,3,8;
 4//1;
 5/5=2,38=5/2;
 8/6=1,10=90,11=11/1;
 10/13=100,45=16/2;
 6/7=2,8=2,9=2,10=2,28=1,40=1,64=1/1,7;
 99/9=1/99;
 -------------------
 Title Card Required
 -------------------
 Symbolic Z-matrix:
 Charge =  0 Multiplicity = 1
 C                     0.        0.        0. 
 C                     1.4073    0.        0. 
 C                     2.1245    1.1939    0. 
 C                     1.4438    2.4055   -0.0102 
 C                     0.048     2.4268   -0.0264 
 C                    -0.6816    1.2365    0.0027 
 C                    -2.154     1.3387    0.0734 
 O                    -0.5058    3.6729   -0.0378 
 C                    -1.8114    3.7506   -0.6064 
 C                    -2.7917    2.702    -0.0777 
 C                    -1.7667    3.7985   -2.14 
 C                    -3.1537    4.0947   -2.7316 
 N                    -4.2223    3.8115   -1.7758 
 C                    -3.9923    2.5697   -1.0308 
 C                    -5.3343    2.3858   -0.329 
 C                    -6.3582    2.9653   -1.3049 
 C                    -5.5443    3.6774   -2.3814 
 O                    -2.8491    0.3454    0.283 
 C                    -0.7033   -1.3308    0.0125 
 H                    -3.0997    3.0033    0.9322 
 H                    -2.1842    4.7314   -0.2783 
 H                    -3.8492    1.7382   -1.7379 
 H                     1.9569   -0.9401    0.0075 
 H                     3.2114    1.1785    0.0079 
 H                     2.        3.3398   -0.0119 
 H                    -1.0432    4.5512   -2.4756 
 H                    -1.4008    2.8392   -2.5279 
 H                    -3.2083    5.1534   -3.0105 
 H                    -3.2658    3.5144   -3.6562 
 H                    -5.3788    2.9429    0.6148 
 H                    -5.5409    1.3342   -0.1062 
 H                    -6.9767    2.1752   -1.7439 
 H                    -7.0229    3.6622   -0.7823 
 H                    -5.5181    3.0581   -3.2868 
 H                    -5.9767    4.6492   -2.6384 
 H                    -1.2246   -1.4799    0.9631 
 H                     0.0052   -2.1589   -0.1016 
 H                    -1.4065   -1.4035   -0.8231 
 
                          Input orientation:                          
 ---------------------------------------------------------------------
 Center     Atomic      Atomic             Coordinates (Angstroms)
 Number     Number       Type             X           Y           Z
 ---------------------------------------------------------------------
      1          6           0        0.000000    0.000000    0.000000
      2          6           0        1.407300    0.000000    0.000000
      3          6           0        2.124500    1.193900    0.000000
      4          6           0        1.443800    2.405500   -0.010200
      5          6           0        0.048000    2.426800   -0.026400
      6          6           0       -0.681600    1.236500    0.002700
      7          6           0       -2.154000    1.338700    0.073400
      8          8           0       -0.505800    3.672900   -0.037800
      9          6           0       -1.811400    3.750600   -0.606400
     10          6           0       -2.791700    2.702000   -0.077700
     11          6           0       -1.766700    3.798500   -2.140000
     12          6           0       -3.153700    4.094700   -2.731600
     13          7           0       -4.222300    3.811500   -1.775800
     14          6           0       -3.992300    2.569700   -1.030800
     15          6           0       -5.334300    2.385800   -0.329000
     16          6           0       -6.358200    2.965300   -1.304900
     17          6           0       -5.544300    3.677400   -2.381400
     18          8           0       -2.849100    0.345400    0.283000
     19          6           0       -0.703300   -1.330800    0.012500
     20          1           0       -3.099700    3.003300    0.932200
     21          1           0       -2.184200    4.731400   -0.278300
     22          1           0       -3.849200    1.738200   -1.737900
     23          1           0        1.956900   -0.940100    0.007500
     24          1           0        3.211400    1.178500    0.007900
     25          1           0        2.000000    3.339800   -0.011900
     26          1           0       -1.043200    4.551200   -2.475600
     27          1           0       -1.400800    2.839200   -2.527900
     28          1           0       -3.208300    5.153400   -3.010500
     29          1           0       -3.265800    3.514400   -3.656200
     30          1           0       -5.378800    2.942900    0.614800
     31          1           0       -5.540900    1.334200   -0.106200
     32          1           0       -6.976700    2.175200   -1.743900
     33          1           0       -7.022900    3.662200   -0.782300
     34          1           0       -5.518100    3.058100   -3.286800
     35          1           0       -5.976700    4.649200   -2.638400
     36          1           0       -1.224600   -1.479900    0.963100
     37          1           0        0.005200   -2.158900   -0.101600
     38          1           0       -1.406500   -1.403500   -0.823100
 ---------------------------------------------------------------------
                    Distance matrix (angstroms):
                    1          2          3          4          5
     1  C    0.000000
     2  C    1.407300   0.000000
     3  C    2.436985   1.392757   0.000000
     4  C    2.805547   2.405799   1.389759   0.000000
     5  C    2.427418   2.781681   2.415076   1.396057   0.000000
     6  C    1.411920   2.427435   2.806425   2.425707   1.396416
     7  C    2.537168   3.805307   4.281579   3.753560   2.458196
     8  O    3.707756   4.141446   3.614602   2.325512   1.363668
     9  C    4.209025   4.979433   4.732414   3.572265   2.355040
    10  C    3.885927   4.993840   5.142900   4.246402   2.853465
    11  C    4.704193   5.392817   5.148299   4.096805   3.105157
    12  C    5.845856   6.710509   6.613295   5.603251   4.511195
    13  N    5.958927   7.026620   7.091344   6.099088   4.818014
    14  C    4.858432   6.068079   6.353788   5.533513   4.165725
    15  C    5.852780   7.158872   7.560593   6.785622   5.390955
    16  C    7.135999   8.414200   8.763380   7.928482   6.554689
    17  C    7.066371   8.216999   8.405316   7.488248   6.195470
    18  O    2.883879   4.279758   5.053389   4.770636   3.580662
    19  C    1.505263   2.495159   3.790873   4.309349   3.832169
    20  H    4.415535   5.495622   5.606709   4.678555   3.340551
    21  H    5.218652   5.946635   5.581779   4.317878   3.218284
    22  H    4.567053   5.802795   6.245130   5.607681   4.311794
    23  H    2.171014   1.088992   2.140585   3.384764   3.870538
    24  H    3.420821   2.154925   1.087038   2.151805   3.400960
    25  H    3.892866   3.392005   2.149542   1.087326   2.155014
    26  H    5.284911   5.731227   5.237784   4.106993   3.420873
    27  H    4.051367   4.726178   4.639508   3.823435   2.920034
    28  H    6.775975   7.544826   7.292428   6.180193   5.190635
    29  H    6.031936   6.896134   6.914322   6.058325   5.033845
    30  H    6.161991   7.422250   7.728939   6.872212   5.488866
    31  H    5.700258   7.075935   7.667419   7.067031   5.695256
    32  H    7.513124   8.835391   9.318582   8.600208   7.235988
    33  H    7.958946   9.224531   9.506809   8.594210   7.217702
    34  H    7.113681   8.253254   8.525704   7.722049   6.481529
    35  H    8.018551   9.115902   9.194003   8.185685   6.932432
    36  H    2.148793   3.169316   4.392407   4.812900   4.226219
    37  H    2.161296   2.576248   3.967748   4.786614   4.586516
    38  H    2.150709   3.250350   4.460038   4.826334   4.173907
                    6          7          8          9         10
     6  C    0.000000
     7  C    1.477635   0.000000
     8  O    2.443070   2.859619   0.000000
     9  C    2.822791   2.529183   1.426161   0.000000
    10  C    2.570346   1.512640   2.483863   1.529730   0.000000
    11  C    3.511759   3.331630   2.454565   1.534999   2.550690
    12  C    4.664438   4.057457   3.800769   2.537055   3.018914
    13  N    4.725489   3.716469   4.105146   2.680232   2.482166
    14  C    3.715680   2.472643   3.789298   2.516141   1.538617
    15  C    4.804012   3.372336   5.005580   3.788199   2.574480
    16  C    6.076377   4.713898   6.029662   4.666689   3.780908
    17  C    5.940352   4.794757   5.556884   4.134069   3.719576
    18  O    2.360230   1.230342   4.082429   3.669229   2.384735
    19  C    2.567410   3.038827   5.007849   5.237514   4.542359
    20  H    3.135723   2.098280   2.849137   2.141370   1.097973
    21  H    3.814590   3.411014   1.998822   1.099363   2.127854
    22  H    3.648984   2.512789   4.220394   3.079395   2.191684
    23  H    3.420423   4.700720   5.229408   6.048109   5.985094
    24  H    3.893436   5.368191   4.476795   5.676406   6.193996
    25  H    3.408088   4.611658   2.527975   3.879298   4.834409
    26  H    4.154511   4.248698   2.646333   2.173707   3.496672
    27  H    3.080557   3.096058   2.774289   2.165965   2.820799
    28  H    5.550288   5.017362   4.281627   3.114302   3.845027
    29  H    5.025382   4.458664   4.553629   3.387086   3.700058
    30  H    5.034894   3.642239   4.970404   3.856171   2.688992
    31  H    4.861502   3.391662   5.552155   4.471953   3.070796
    32  H    6.600004   5.221183   6.857582   5.518706   4.535192
    33  H    6.834642   5.462331   6.559496   5.215217   4.395623
    34  H    6.126236   5.056130   6.004759   4.626416   4.225918
    35  H    6.830814   5.738145   6.135717   4.720829   4.526919
    36  H    2.931901   3.098364   5.298096   5.492340   4.585559
    37  H    3.465734   4.114119   5.854493   6.202987   5.608170
    38  H    2.859550   2.980290   5.215150   5.174519   4.396536
                   11         12         13         14         15
    11  C    0.000000
    12  C    1.536715   0.000000
    13  N    2.482495   1.461390   0.000000
    14  C    2.773728   2.433433   1.466285   0.000000
    15  C    4.243019   3.667130   2.315685   1.525551   0.000000
    16  C    4.740621   3.685083   2.345180   2.414356   1.528585
    17  C    3.787242   2.451887   1.460280   2.336627   2.434066
    18  O    4.355045   4.820565   4.258895   2.824976   3.273224
    19  C    5.663373   6.555196   6.482640   5.207677   5.947764
    20  H    3.442041   3.823284   3.040836   2.199571   2.639199
    21  H    2.123802   2.713669   2.691203   2.916921   3.927791
    22  H    2.956912   2.650331   2.106944   1.100845   2.147069
    23  H    6.397756   7.679200   7.996273   6.984966   8.021000
    24  H    6.021574   7.518217   8.085430   7.409968   8.637133
    25  H    4.350545   5.875991   6.484664   6.126897   7.402880
    26  H    1.096648   2.174428   3.338196   3.835490   5.264066
    27  H    1.097545   2.165741   3.077643   3.004964   4.529145
    28  H    2.161420   1.096181   2.086474   3.348040   4.401128
    29  H    2.151017   1.097360   2.130508   2.883225   4.077093
    30  H    4.622579   4.180443   2.794088   2.183955   1.096859
    31  H    4.945069   4.495755   3.265469   2.186208   1.094617
    32  H    5.471389   4.390371   3.203937   3.093669   2.178020
    33  H    5.430430   4.354025   2.975348   3.231075   2.164728
    34  H    3.992035   2.640677   2.128340   2.766972   3.038807
    35  H    4.323909   2.878452   2.126908   3.293409   3.296814
    36  H    6.146919   6.960488   6.669835   5.294815   5.788160
    37  H    6.541049   7.483519   7.504690   6.261236   7.015431
    38  H    5.378176   6.076618   6.002715   4.745084   5.480013
                   16         17         18         19         20
    16  C    0.000000
    17  C    1.525900   0.000000
    18  O    4.658228   5.046321   0.000000
    19  C    7.222874   7.365331   2.736288   0.000000
    20  H    3.952706   4.172580   2.747489   5.037162   0.000000
    21  H    4.647074   4.101733   4.471481   6.247231   2.299952
    22  H    2.826366   2.654798   2.650307   4.730682   3.048223
    23  H    9.279840   9.126672   4.982574   2.688742   6.478787
    24  H    9.823102   9.413583   6.123675   4.649891   6.634321
    25  H    8.465908   7.914857   5.706765   5.396567   5.197259
    26  H    5.668760   4.586099   5.344147   6.395631   4.270631
    27  H    5.107587   4.229969   4.027129   4.932448   3.858171
    28  H    4.197466   2.833944   5.838924   7.580132   4.492172
    29  H    3.923399   2.615960   5.072819   6.595584   4.619765
    30  H    2.155220   3.089352   3.640945   6.362985   2.301888
    31  H    2.182968   3.266058   2.893957   5.524372   3.134267
    32  H    1.095227   2.171355   4.949098   7.398143   4.783136
    33  H    1.095722   2.177983   5.436601   8.093151   4.331877
    34  H    2.154601   1.097255   5.217832   7.302748   4.863293
    35  H    2.181578   1.094264   6.069527   8.402167   4.871889
    36  H    7.159433   7.512871   2.536386   1.094360   4.859633
    37  H    8.258221   8.369996   3.816604   1.095783   6.112075
    38  H    6.621018   6.735372   2.522539   1.094533   5.036655
                   21         22         23         24         25
    21  H    0.000000
    22  H    3.723158   0.000000
    23  H    7.028250   6.628009   0.000000
    24  H    6.466646   7.294735   2.462161   0.000000
    25  H    4.417584   6.305342   4.280161   2.477721   0.000000
    26  H    2.482434   4.041139   6.732070   5.970301   4.098582
    27  H    3.042176   2.798386   5.655573   5.519112   4.259847
    28  H    2.948183   3.700521   8.539225   8.131612   6.277510
    29  H    3.749821   2.678641   7.780865   7.799755   6.406251
    30  H    3.768531   3.053879   8.322199   8.790505   7.415994
    31  H    4.778914   2.384850   7.835967   8.754428   7.803621
    32  H    5.625851   3.157889   9.621939  10.385547   9.216141
    33  H    4.980986   3.832404  10.121352  10.560970   9.061467
    34  H    4.792274   2.631816   9.094704   9.517989   8.205252
    35  H    4.467649   3.716326  10.058980  10.172013   8.499457
    36  H    6.406415   4.953796   3.365486   5.259049   5.880321
    37  H    7.231938   5.720250   2.303586   4.629249   5.850041
    38  H    6.207948   4.083371   3.495296   5.355585   5.895861
                   26         27         28         29         30
    26  H    0.000000
    27  H    1.749731   0.000000
    28  H    2.310069   2.975816   0.000000
    29  H    2.721897   2.281925   1.762542   0.000000
    30  H    5.561891   5.070681   4.768667   4.799252   0.000000
    31  H    6.016016   5.026936   5.335004   4.746773   1.770320
    32  H    6.433287   5.669763   4.967372   4.384191   2.950612
    33  H    6.278089   5.944111   4.662588   4.732541   2.274279
    34  H    4.786661   4.192375   3.130783   2.327557   3.905785
    35  H    4.937158   4.922110   2.838435   3.110091   3.721862
    36  H    6.944907   5.556325   7.982808   7.102638   6.077816
    37  H    7.194474   5.731036   8.500471   7.451238   7.451782
    38  H    6.190412   4.572404   7.143118   5.972369   6.061181
                   31         32         33         34         35
    31  H    0.000000
    32  H    2.334709   0.000000
    33  H    2.841306   1.771434   0.000000
    34  H    3.617813   2.299471   2.983602   0.000000
    35  H    4.194184   2.814393   2.348150   1.778296   0.000000
    36  H    5.262415   7.333093   7.944048   7.555742   8.550972
    37  H    6.554464   8.380245   9.151106   8.238291   9.411095
    38  H    5.010211   6.684467   7.563526   6.548355   7.798540
                   36         37         38
    36  H    0.000000
    37  H    1.762678   0.000000
    38  H    1.797063   1.756157   0.000000
 Stoichiometry    C16H19NO2
 Framework group  C1[X(C16H19NO2)]
 Deg. of freedom   108
 Full point group                 C1      NOp   1
 Largest Abelian subgroup         C1      NOp   1
 Largest concise Abelian subgroup C1      NOp   1
                         Standard orientation:                         
 ---------------------------------------------------------------------
 Center     Atomic      Atomic             Coordinates (Angstroms)
 Number     Number       Type             X           Y           Z
 ---------------------------------------------------------------------
      1          6           0        2.839540    1.083440    0.361846
      2          6           0        4.080290    0.435940    0.509418
      3          6           0        4.237797   -0.901770    0.155162
      4          6           0        3.153212   -1.614053   -0.342591
      5          6           0        1.910015   -0.994285   -0.481600
      6          6           0        1.747536    0.354107   -0.156919
      7          6           0        0.426705    0.964770   -0.413631
      8          8           0        0.923286   -1.794406   -0.977344
      9          6           0       -0.403133   -1.415896   -0.615024
     10          6           0       -0.716091    0.065849   -0.830808
     11          6           0       -0.772332   -1.899308    0.794312
     12          6           0       -2.263258   -1.674108    1.090823
     13          7           0       -2.849975   -0.680141    0.194468
     14          6           0       -1.964089    0.467394   -0.025448
     15          6           0       -2.895862    1.433376   -0.750696
     16          6           0       -4.276946    1.146539   -0.161713
     17          6           0       -4.116019   -0.125505    0.665560
     18          8           0        0.262145    2.180725   -0.323547
     19          6           0        2.751909    2.533750    0.755215
     20          1           0       -0.850937    0.231411   -1.907818
     21          1           0       -1.038535   -1.981854   -1.311123
     22          1           0       -1.686851    0.908627    0.944249
     23          1           0        4.940629    0.978637    0.898265
     24          1           0        5.204196   -1.386679    0.267352
     25          1           0        3.271584   -2.659036   -0.618772
     26          1           0       -0.519052   -2.959954    0.910575
     27          1           0       -0.166754   -1.364793    1.537398
     28          1           0       -2.803286   -2.619415    0.962850
     29          1           0       -2.366168   -1.387394    2.145055
     30          1           0       -2.916914    1.243584   -1.830805
     31          1           0       -2.603195    2.477416   -0.600654
     32          1           0       -4.619538    1.977086    0.464660
     33          1           0       -5.007389    1.008086   -0.966629
     34          1           0       -4.076610    0.135785    1.730521
     35          1           0       -4.949013   -0.817604    0.508925
     36          1           0        2.593067    3.161283   -0.127166
     37          1           0        3.676912    2.875308    1.233178
     38          1           0        1.948588    2.688499    1.482355
 ---------------------------------------------------------------------
 Rotational constants (GHZ):           0.8127120           0.2660723           0.2198162
 Standard basis: STO-3G (5D, 7F)
 There are   114 symmetry adapted cartesian basis functions of A   symmetry.
 There are   114 symmetry adapted basis functions of A   symmetry.
   114 basis functions,   342 primitive gaussians,   114 cartesian basis functions
    69 alpha electrons       69 beta electrons
       nuclear repulsion energy      1492.2399601852 Hartrees.
 NAtoms=   38 NActive=   38 NUniq=   38 SFac= 1.00D+00 NAtFMM=   60 NAOKFM=F Big=F
 Integral buffers will be    131072 words long.
 Raffenetti 1 integral format.
 Two-electron integral symmetry is turned on.
 One-electron integrals computed using PRISM.
 NBasis=   114 RedAO= T EigKep=  1.73D-01  NBF=   114
 NBsUse=   114 1.00D-06 EigRej= -1.00D+00 NBFU=   114
 ExpMin= 1.69D-01 ExpMax= 1.31D+02 ExpMxC= 1.31D+02 IAcc=3 IRadAn=         5 AccDes= 0.00D+00
 Harris functional with IExCor=  205 and IRadAn=       5 diagonalized for initial guess.
 HarFok:  IExCor=  205 AccDes= 0.00D+00 IRadAn=         5 IDoV= 1 UseB2=F ITyADJ=14
 ICtDFT=  3500011 ScaDFX=  1.000000  1.000000  1.000000  1.000000
 FoFCou: FMM=F IPFlag=           0 FMFlag=      100000 FMFlg1=           0
         NFxFlg=           0 DoJE=T BraDBF=F KetDBF=T FulRan=T
         wScrn=  0.000000 ICntrl=       500 IOpCl=  0 I1Cent=   200000004 NGrid=           0
         NMat0=    1 NMatS0=      1 NMatT0=    0 NMatD0=    1 NMtDS0=    0 NMtDT0=    0
 Petite list used in FoFCou.
 Requested convergence on RMS density matrix=1.00D-08 within 128 cycles.
 Requested convergence on MAX density matrix=1.00D-06.
 Requested convergence on             energy=1.00D-06.
 No special actions if energy rises.
 Integral accuracy reduced to 1.0D-05 until final iterations.
 Initial convergence to 1.0D-05 achieved.  Increase integral accuracy.
 SCF Done:  E(RHF) =  -811.052337839     A.U. after   15 cycles
            NFock= 15  Conv=0.46D-08     -V/T= 2.0093
 Range of M.O.s used for correlation:     1   114
 NBasis=   114 NAE=    69 NBE=    69 NFC=     0 NFV=     0
 NROrb=    114 NOA=    69 NOB=    69 NVA=    45 NVB=    45
          Differentiating once with respect to magnetic field using GIAOs.
          Electric field/nuclear overlap derivatives assumed to be zero.
 FoFCou: FMM=F IPFlag=           0 FMFlag=      100000 FMFlg1=           0
         NFxFlg=           0 DoJE=F BraDBF=F KetDBF=T FulRan=T
         wScrn=  0.000000 ICntrl=      6100 IOpCl=  0 I1Cent=           7 NGrid=          38
         NMat0=    1 NMatS0=      1 NMatT0=    0 NMatD0=    1 NMtDS0=    0 NMtDT0=    0
 Symmetry not used in FoFCou.
 FoFJK:  IHMeth= 1 ICntrl=    6127 DoSepK=F KAlg= 0 I1Cent=           0 FoldK=F
 IRaf=         1 NMat=       1 IRICut=       1 DoRegI=T DoRafI=F ISym2E= 0 IDoP0=0 IntGTp=1.
          There are     3 degrees of freedom in the 1st order CPHF.  IDoFFX=0 NUNeed=     3.
      3 vectors produced by pass  0 Test12= 1.04D-13 3.33D-08 XBig12= 2.57D+01 1.48D+00.
 AX will form     3 AO Fock derivatives at one time.
      3 vectors produced by pass  1 Test12= 1.04D-13 3.33D-08 XBig12= 1.49D-01 2.12D-01.
      3 vectors produced by pass  2 Test12= 1.04D-13 3.33D-08 XBig12= 3.87D-03 2.37D-02.
      3 vectors produced by pass  3 Test12= 1.04D-13 3.33D-08 XBig12= 1.30D-04 3.12D-03.
      3 vectors produced by pass  4 Test12= 1.04D-13 3.33D-08 XBig12= 1.65D-06 1.55D-04.
      3 vectors produced by pass  5 Test12= 1.04D-13 3.33D-08 XBig12= 1.87D-08 2.35D-05.
      3 vectors produced by pass  6 Test12= 1.04D-13 3.33D-08 XBig12= 3.55D-10 3.25D-06.
      3 vectors produced by pass  7 Test12= 1.04D-13 3.33D-08 XBig12= 5.81D-12 3.11D-07.
      1 vectors produced by pass  8 Test12= 1.04D-13 3.33D-08 XBig12= 1.16D-13 4.87D-08.
 InvSVY:  IOpt=1 It=  1 EMax= 8.88D-16
 Solved reduced A of dimension    25 with     3 vectors.
 Calculating GIAO nuclear magnetic shielding tensors.
 SCF GIAO Magnetic shielding tensor (ppm):
      1  C    Isotropic =   113.8346   Anisotropy =   169.7518
   XX=    92.7140   YX=     4.8132   ZX=   -37.2593
   XY=     2.1035   YY=    47.0293   ZY=   -52.7852
   XZ=   -38.5193   YZ=   -47.5881   ZZ=   201.7605
   Eigenvalues:    31.1541    83.3472   227.0025
      2  C    Isotropic =   124.0443   Anisotropy =   142.8529
   XX=    74.4478   YX=   -30.0104   ZX=   -48.0501
   XY=   -23.4044   YY=   102.1667   ZY=   -40.4975
   XZ=   -46.5019   YZ=   -38.0760   ZZ=   195.5183
   Eigenvalues:    35.0391   117.8141   219.2796
      3  C    Isotropic =   117.1904   Anisotropy =   168.9104
   XX=    46.3584   YX=    42.2193   ZX=   -37.2791
   XY=    43.7292   YY=    93.5931   ZY=   -28.7484
   XZ=   -36.2169   YZ=   -27.9064   ZZ=   211.6197
   Eigenvalues:    19.2355   102.5384   229.7974
      4  C    Isotropic =   130.8957   Anisotropy =   146.6152
   XX=   121.2619   YX=    14.2598   ZX=   -23.9409
   XY=    17.8805   YY=    60.1813   ZY=   -45.0847
   XZ=   -21.9231   YZ=   -39.1619   ZZ=   211.2439
   Eigenvalues:    47.8516   116.1963   228.6392
      5  C    Isotropic =   107.0148   Anisotropy =   133.6005
   XX=    70.2505   YX=   -10.2013   ZX=   -35.2994
   XY=     0.0728   YY=    75.0318   ZY=   -33.1277
   XZ=   -38.3242   YZ=   -37.7803   ZZ=   175.7622
   Eigenvalues:    47.0408    77.9218   196.0818
      6  C    Isotropic =   132.0679   Anisotropy =   151.5744
   XX=    85.1704   YX=    25.8804   ZX=   -38.3807
   XY=    24.6610   YY=    99.5976   ZY=   -28.0136
   XZ=   -42.7671   YZ=   -31.9819   ZZ=   211.4356
   Eigenvalues:    64.1385    98.9476   233.1175
      7  C    Isotropic =    88.8306   Anisotropy =   146.7627
   XX=   -30.8747   YX=   -14.9677   ZX=   -61.0645
   XY=   -15.1162   YY=   127.7542   ZY=   -12.3507
   XZ=   -58.1930   YZ=    -8.7708   ZZ=   169.6124
   Eigenvalues:   -48.9647   128.7842   186.6724
      8  O    Isotropic =   346.2572   Anisotropy =   107.7335
   XX=   275.2165   YX=    14.1019   ZX=   -12.9415
   XY=    54.9191   YY=   348.3490   ZY=    -3.2927
   XZ=   -26.7518   YZ=     7.5345   ZZ=   415.2060
   Eigenvalues:   259.1301   361.5620   418.0795
      9  C    Isotropic =   188.1437   Anisotropy =    53.3827
   XX=   219.1247   YX=   -11.6930   ZX=   -12.2512
   XY=   -10.6717   YY=   172.5986   ZY=    -6.3905
   XZ=   -10.8397   YZ=    -3.6044   ZZ=   172.7078
   Eigenvalues:   163.0498   177.6491   223.7321
     10  C    Isotropic =   207.4157   Anisotropy =    18.8337
   XX=   216.0199   YX=    -3.1887   ZX=    -7.3282
   XY=    -2.6422   YY=   197.7187   ZY=    -4.9060
   XZ=    -6.0461   YZ=    -1.5292   ZZ=   208.5086
   Eigenvalues:   195.6639   206.6118   219.9715
     11  C    Isotropic =   219.5820   Anisotropy =    15.6902
   XX=   224.9636   YX=    -3.6335   ZX=    -5.9666
   XY=    -5.1223   YY=   213.7933   ZY=    -5.6089
   XZ=    -8.3226   YZ=    -7.0109   ZZ=   219.9893
   Eigenvalues:   206.6524   222.0516   230.0422
     12  C    Isotropic =   202.3329   Anisotropy =    40.1312
   XX=   199.6639   YX=   -16.7619   ZX=     4.2440
   XY=   -17.9479   YY=   207.0116   ZY=   -14.9011
   XZ=     2.9814   YZ=   -17.4583   ZZ=   200.3230
   Eigenvalues:   181.4915   196.4201   229.0870
     13  N    Isotropic =   294.8727   Anisotropy =    52.3681
   XX=   326.3348   YX=    -2.7168   ZX=   -14.4198
   XY=    -9.4036   YY=   310.4679   ZY=   -32.0136
   XZ=   -18.5762   YZ=   -15.6224   ZZ=   247.8154
   Eigenvalues:   236.3582   318.4751   329.7848
     14  C    Isotropic =   192.5502   Anisotropy =    40.0920
   XX=   204.9588   YX=    10.2575   ZX=   -10.6913
   XY=    14.4983   YY=   201.2900   ZY=   -11.4548
   XZ=    -4.5346   YZ=   -11.1300   ZZ=   171.4018
   Eigenvalues:   167.2822   191.0901   219.2782
     15  C    Isotropic =   210.9986   Anisotropy =    31.7806
   XX=   224.7123   YX=   -12.3336   ZX=    -0.7330
   XY=   -14.5191   YY=   205.1354   ZY=   -10.7214
   XZ=    -4.0858   YZ=   -16.1314   ZZ=   203.1480
   Eigenvalues:   187.3013   213.5088   232.1856
     16  C    Isotropic =   215.7030   Anisotropy =    20.8969
   XX=   225.6772   YX=    -2.7961   ZX=    -6.7929
   XY=    -2.4615   YY=   218.3270   ZY=   -15.3162
   XZ=    -7.8045   YZ=   -16.7361   ZZ=   203.1049
   Eigenvalues:   191.3018   226.1730   229.6343
     17  C    Isotropic =   198.1991   Anisotropy =    51.2570
   XX=   219.6008   YX=   -20.3880   ZX=    -7.7219
   XY=   -23.9208   YY=   190.1803   ZY=    -2.6163
   XZ=   -12.2859   YZ=    -7.6748   ZZ=   184.8163
   Eigenvalues:   171.5046   190.7223   232.3705
     18  O    Isotropic =  -346.4854   Anisotropy =  1270.5177
   XX=  -359.5451   YX=   157.3775   ZX=  -207.5402
   XY=   119.5837   YY= -1113.3204   ZY=  -148.6638
   XZ=  -178.6564   YZ=  -178.1079   ZZ=   433.4094
   Eigenvalues: -1148.5519  -391.4307   500.5264
     19  C    Isotropic =   218.0236   Anisotropy =    23.3274
   XX=   214.5556   YX=    -2.1050   ZX=     1.4284
   XY=    -2.4196   YY=   231.5385   ZY=     7.1950
   XZ=     3.1711   YZ=     6.7321   ZZ=   207.9768
   Eigenvalues:   205.2161   215.2796   233.5752
     20  H    Isotropic =    30.6822   Anisotropy =    11.4025
   XX=    27.7469   YX=    -2.3723   ZX=    -1.3200
   XY=    -3.0039   YY=    26.8803   ZY=    -3.9299
   XZ=     2.2387   YZ=    -1.8527   ZZ=    37.4194
   Eigenvalues:    24.2954    29.4673    38.2839
     21  H    Isotropic =    29.6560   Anisotropy =     9.3283
   XX=    30.0512   YX=     2.0952   ZX=     2.4523
   XY=     0.8724   YY=    29.1705   ZY=     5.2262
   XZ=     1.5060   YZ=     5.5154   ZZ=    29.7463
   Eigenvalues:    24.0649    29.0281    35.8749
     22  H    Isotropic =    32.5781   Anisotropy =     6.7420
   XX=    33.1694   YX=     1.2074   ZX=     3.3508
   XY=     0.8485   YY=    32.0231   ZY=     4.3947
   XZ=    -0.2160   YZ=     3.4158   ZZ=    32.5419
   Eigenvalues:    28.3453    32.3164    37.0728
     23  H    Isotropic =    25.9283   Anisotropy =     6.0148
   XX=    28.1956   YX=    -1.9427   ZX=     1.1378
   XY=    -1.9485   YY=    27.7657   ZY=     1.3111
   XZ=     1.3251   YZ=     1.4596   ZZ=    21.8235
   Eigenvalues:    21.1224    26.7242    29.9381
     24  H    Isotropic =    25.3033   Anisotropy =     3.5688
   XX=    26.9254   YX=    -0.1085   ZX=     1.1359
   XY=     0.3519   YY=    26.7632   ZY=     1.6316
   XZ=     1.1601   YZ=     1.6586   ZZ=    22.2212
   Eigenvalues:    21.4822    26.7451    27.6825
     25  H    Isotropic =    25.7050   Anisotropy =     7.1200
   XX=    29.6305   YX=    -2.0573   ZX=     1.0480
   XY=    -1.5591   YY=    26.3767   ZY=     1.6178
   XZ=     1.3248   YZ=     1.9182   ZZ=    21.1079
   Eigenvalues:    20.2655    26.3979    30.4517
     26  H    Isotropic =    31.8421   Anisotropy =    14.7794
   XX=    29.9084   YX=    -3.5395   ZX=    -0.9181
   XY=    -3.4466   YY=    39.5065   ZY=    -3.6132
   XZ=    -1.8886   YZ=    -5.6520   ZZ=    26.1115
   Eigenvalues:    23.6780    30.1534    41.6951
     27  H    Isotropic =    33.0564   Anisotropy =     8.1354
   XX=    35.4405   YX=     2.3282   ZX=     3.9320
   XY=     2.3667   YY=    27.9798   ZY=     1.5132
   XZ=     1.1944   YZ=    -1.0236   ZZ=    35.7490
   Eigenvalues:    27.2735    33.4158    38.4800
     28  H    Isotropic =    31.4944   Anisotropy =    14.3098
   XX=    31.8747   YX=     4.2938   ZX=    -0.7564
   XY=     4.6163   YY=    38.3681   ZY=    -1.7056
   XZ=    -1.3911   YZ=    -3.0196   ZZ=    24.2404
   Eigenvalues:    23.8379    29.6110    41.0343
     29  H    Isotropic =    32.5886   Anisotropy =    11.4156
   XX=    30.9916   YX=    -1.4462   ZX=    -1.8877
   XY=    -1.7661   YY=    27.4467   ZY=    -1.4514
   XZ=    -3.4322   YZ=    -1.7439   ZZ=    39.3276
   Eigenvalues:    26.3399    31.2268    40.1990
     30  H    Isotropic =    31.6057   Anisotropy =    11.4595
   XX=    29.6551   YX=    -1.5533   ZX=     0.4631
   XY=    -1.9278   YY=    26.3391   ZY=    -2.3219
   XZ=     0.7693   YZ=    -1.8464   ZZ=    38.8228
   Eigenvalues:    25.3790    30.1927    39.2454
     31  H    Isotropic =    31.2813   Anisotropy =    14.3866
   XX=    29.2749   YX=     2.1634   ZX=     0.2467
   XY=     1.7715   YY=    40.4730   ZY=    -1.1910
   XZ=    -0.3912   YZ=    -0.8832   ZZ=    24.0960
   Eigenvalues:    24.0301    28.9415    40.8724
     32  H    Isotropic =    32.0066   Anisotropy =    14.8768
   XX=    31.3707   YX=    -5.8371   ZX=    -3.5402
   XY=    -5.7197   YY=    35.8799   ZY=     3.5988
   XZ=    -4.0280   YZ=     3.9174   ZZ=    28.7691
   Eigenvalues:    26.0458    28.0494    41.9244
     33  H    Isotropic =    31.6767   Anisotropy =    15.1644
   XX=    36.8787   YX=    -0.3909   ZX=     7.2277
   XY=    -0.7004   YY=    26.4533   ZY=    -1.7902
   XZ=     6.5880   YZ=    -1.3952   ZZ=    31.6982
   Eigenvalues:    25.5866    27.6573    41.7863
     34  H    Isotropic =    32.4956   Anisotropy =    11.2216
   XX=    30.4529   YX=    -2.4202   ZX=    -3.7716
   XY=    -2.1476   YY=    28.8545   ZY=     0.8426
   XZ=    -4.0527   YZ=     0.1164   ZZ=    38.1796
   Eigenvalues:    26.8457    30.6645    39.9767
     35  H    Isotropic =    31.4860   Anisotropy =    14.2030
   XX=    38.2931   YX=     5.6941   ZX=     0.5500
   XY=     4.5230   YY=    31.0032   ZY=    -1.2572
   XZ=    -0.7958   YZ=    -1.3147   ZZ=    25.1619
   Eigenvalues:    24.8008    28.7025    40.9547
     36  H    Isotropic =    30.7861   Anisotropy =    11.4215
   XX=    28.2458   YX=    -0.1446   ZX=     2.3895
   XY=    -0.8068   YY=    34.9363   ZY=    -3.8656
   XZ=     1.9703   YZ=    -6.9097   ZZ=    29.1761
   Eigenvalues:    25.0668    28.8911    38.4005
     37  H    Isotropic =    31.0190   Anisotropy =    12.1548
   XX=    35.0639   YX=     2.2904   ZX=     4.3856
   XY=     3.0671   YY=    31.3231   ZY=     3.2337
   XZ=     4.9788   YZ=     3.6268   ZZ=    26.6701
   Eigenvalues:    23.9175    30.0173    39.1222
     38  H    Isotropic =    31.2677   Anisotropy =     9.9250
   XX=    33.6270   YX=    -2.0751   ZX=    -4.3023
   XY=    -0.9507   YY=    29.9301   ZY=     2.9860
   XZ=    -2.8026   YZ=     6.2649   ZZ=    30.2459
   Eigenvalues:    25.1902    30.7284    37.8843
 End of Minotr F.D. properties file   721 does not exist.
 End of Minotr F.D. properties file   722 does not exist.
 End of Minotr F.D. properties file   788 does not exist.

 **********************************************************************

            Population analysis using the SCF Density.

 **********************************************************************

 Orbital symmetries:
       Occupied  (A) (A) (A) (A) (A) (A) (A) (A) (A) (A) (A) (A)
                 (A) (A) (A) (A) (A) (A) (A) (A) (A) (A) (A) (A)
                 (A) (A) (A) (A) (A) (A) (A) (A) (A) (A) (A) (A)
                 (A) (A) (A) (A) (A) (A) (A) (A) (A) (A) (A) (A)
                 (A) (A) (A) (A) (A) (A) (A) (A) (A) (A) (A) (A)
                 (A) (A) (A) (A) (A) (A) (A) (A) (A)
       Virtual   (A) (A) (A) (A) (A) (A) (A) (A) (A) (A) (A) (A)
                 (A) (A) (A) (A) (A) (A) (A) (A) (A) (A) (A) (A)
                 (A) (A) (A) (A) (A) (A) (A) (A) (A) (A) (A) (A)
                 (A) (A) (A) (A) (A) (A) (A) (A) (A)
 The electronic state is 1-A.
 Alpha  occ. eigenvalues --  -20.30037 -20.25836 -15.31529 -11.11408 -11.10983
 Alpha  occ. eigenvalues --  -11.09873 -11.08209 -11.07698 -11.07054 -11.06337
 Alpha  occ. eigenvalues --  -11.05360 -11.05173 -11.04309 -11.04159 -11.04089
 Alpha  occ. eigenvalues --  -11.03933 -11.02823 -11.02115 -11.01834  -1.34593
 Alpha  occ. eigenvalues --   -1.31380  -1.20368  -1.09766  -1.04937  -1.02755
 Alpha  occ. eigenvalues --   -0.99093  -0.97623  -0.95188  -0.92075  -0.88168
 Alpha  occ. eigenvalues --   -0.83946  -0.80467  -0.78793  -0.75488  -0.74305
 Alpha  occ. eigenvalues --   -0.71781  -0.67848  -0.65173  -0.64389  -0.63061
 Alpha  occ. eigenvalues --   -0.61054  -0.59959  -0.58141  -0.57444  -0.56037
 Alpha  occ. eigenvalues --   -0.55826  -0.54445  -0.52962  -0.52524  -0.51331
 Alpha  occ. eigenvalues --   -0.51084  -0.49764  -0.48935  -0.48212  -0.47313
 Alpha  occ. eigenvalues --   -0.46506  -0.45358  -0.44634  -0.43645  -0.42859
 Alpha  occ. eigenvalues --   -0.42667  -0.42479  -0.39696  -0.38694  -0.36494
 Alpha  occ. eigenvalues --   -0.31206  -0.28928  -0.27217  -0.24316
 Alpha virt. eigenvalues --    0.21273   0.26942   0.34753   0.49004   0.50918
 Alpha virt. eigenvalues --    0.53096   0.54745   0.56219   0.58077   0.58448
 Alpha virt. eigenvalues --    0.60501   0.61420   0.62399   0.63303   0.64790
 Alpha virt. eigenvalues --    0.65785   0.66869   0.67034   0.68864   0.69558
 Alpha virt. eigenvalues --    0.70532   0.71038   0.73245   0.73407   0.73735
 Alpha virt. eigenvalues --    0.74283   0.74780   0.75152   0.76397   0.77239
 Alpha virt. eigenvalues --    0.77860   0.78603   0.79195   0.79916   0.82130
 Alpha virt. eigenvalues --    0.83241   0.84925   0.86117   0.86985   0.88307
 Alpha virt. eigenvalues --    0.91096   0.93972   1.00539   1.12042   1.13851
          Condensed to atoms (all electrons):
               1          2          3          4          5          6
     1  C    4.758872   0.506250  -0.028872  -0.010291  -0.028226   0.495819
     2  C    0.506250   4.807934   0.503689  -0.031773  -0.011263  -0.030925
     3  C   -0.028872   0.503689   4.758532   0.509874  -0.028999  -0.009414
     4  C   -0.010291  -0.031773   0.509874   4.808471   0.498230  -0.032437
     5  C   -0.028226  -0.011263  -0.028999   0.498230   4.746165   0.490706
     6  C    0.495819  -0.030925  -0.009414  -0.032437   0.490706   4.872423
     7  C   -0.023629   0.000767   0.000018   0.000816  -0.029780   0.390553
     8  O    0.000251   0.000008   0.000357  -0.027905   0.295248  -0.017129
     9  C    0.000025   0.000000  -0.000020   0.001715  -0.039993  -0.006595
    10  C    0.000603  -0.000007  -0.000000  -0.000030  -0.005135  -0.033675
    11  C   -0.000002  -0.000000   0.000001   0.000019  -0.001329   0.000062
    12  C   -0.000000   0.000000  -0.000000   0.000000  -0.000003  -0.000002
    13  N    0.000000  -0.000000  -0.000000   0.000000  -0.000000  -0.000004
    14  C   -0.000006   0.000000  -0.000000   0.000000   0.000021   0.000592
    15  C    0.000000  -0.000000   0.000000  -0.000000  -0.000000  -0.000004
    16  C   -0.000000   0.000000  -0.000000   0.000000   0.000000   0.000000
    17  C   -0.000000   0.000000   0.000000   0.000000   0.000000   0.000000
    18  O   -0.001118  -0.000004  -0.000000  -0.000002   0.000327  -0.028213
    19  C    0.381451  -0.030431   0.000888   0.000012   0.000717  -0.023930
    20  H   -0.000018   0.000000   0.000000   0.000001   0.000028   0.000729
    21  H    0.000001   0.000000   0.000000  -0.000040   0.002551  -0.000031
    22  H   -0.000004   0.000000   0.000000  -0.000000   0.000002   0.000123
    23  H   -0.024985   0.394269  -0.026888   0.001432   0.000048   0.001249
    24  H    0.001327  -0.024809   0.393691  -0.025070   0.001363   0.000007
    25  H    0.000039   0.001395  -0.024740   0.393408  -0.025361   0.001244
    26  H    0.000000  -0.000000   0.000000  -0.000006   0.000030   0.000008
    27  H   -0.000001   0.000000   0.000001  -0.000043   0.000353  -0.000062
    28  H    0.000000  -0.000000   0.000000  -0.000000  -0.000000  -0.000000
    29  H    0.000000  -0.000000   0.000000   0.000000   0.000000   0.000001
    30  H    0.000000  -0.000000   0.000000  -0.000000  -0.000000  -0.000001
    31  H   -0.000000   0.000000  -0.000000   0.000000  -0.000000   0.000001
    32  H    0.000000  -0.000000   0.000000  -0.000000  -0.000000  -0.000000
    33  H    0.000000  -0.000000   0.000000  -0.000000  -0.000000  -0.000000
    34  H    0.000000  -0.000000  -0.000000   0.000000  -0.000000  -0.000000
    35  H    0.000000  -0.000000   0.000000  -0.000000   0.000000  -0.000000
    36  H   -0.021077   0.000523  -0.000023   0.000003  -0.000003  -0.001459
    37  H   -0.020529  -0.005669   0.000062  -0.000000  -0.000016   0.001119
    38  H   -0.021108   0.000881  -0.000024   0.000002   0.000004  -0.002163
               7          8          9         10         11         12
     1  C   -0.023629   0.000251   0.000025   0.000603  -0.000002  -0.000000
     2  C    0.000767   0.000008   0.000000  -0.000007  -0.000000   0.000000
     3  C    0.000018   0.000357  -0.000020  -0.000000   0.000001  -0.000000
     4  C    0.000816  -0.027905   0.001715  -0.000030   0.000019   0.000000
     5  C   -0.029780   0.295248  -0.039993  -0.005135  -0.001329  -0.000003
     6  C    0.390553  -0.017129  -0.006595  -0.033675   0.000062  -0.000002
     7  C    4.772152  -0.002240  -0.020805   0.355947  -0.000385   0.000011
     8  O   -0.002240   7.791090   0.265008  -0.013989  -0.017670   0.000221
     9  C   -0.020805   0.265008   4.734258   0.354408   0.356150  -0.019295
    10  C    0.355947  -0.013989   0.354408   4.818367  -0.024681  -0.001687
    11  C   -0.000385  -0.017670   0.356150  -0.024681   4.774480   0.358370
    12  C    0.000011   0.000221  -0.019295  -0.001687   0.358370   4.705361
    13  N    0.000482   0.000003  -0.006429  -0.021279  -0.018959   0.329319
    14  C   -0.024732   0.000202  -0.020586   0.359558  -0.006940  -0.033883
    15  C    0.000284  -0.000000   0.000657  -0.019908   0.000026   0.001446
    16  C   -0.000005   0.000000  -0.000012   0.000864  -0.000014   0.001384
    17  C   -0.000010   0.000000   0.000064   0.001195   0.001023  -0.032375
    18  O    0.431195   0.000000   0.000294  -0.025924  -0.000001   0.000000
    19  C   -0.002612  -0.000001  -0.000000   0.000007  -0.000000   0.000000
    20  H   -0.024787   0.000179  -0.023419   0.381276   0.001258   0.000005
    21  H    0.001219  -0.021560   0.380294  -0.024674  -0.026639  -0.002166
    22  H   -0.005397  -0.000005   0.000346  -0.025745  -0.000263  -0.003443
    23  H   -0.000014   0.000000  -0.000000   0.000000  -0.000000  -0.000000
    24  H    0.000001  -0.000005   0.000000  -0.000000  -0.000000   0.000000
    25  H   -0.000019  -0.001111   0.000037   0.000001  -0.000002   0.000000
    26  H   -0.000012  -0.000591  -0.020044   0.001163   0.383711  -0.019686
    27  H    0.000168  -0.000536  -0.023395  -0.001982   0.380669  -0.022177
    28  H    0.000000  -0.000003   0.000240   0.000008  -0.021636   0.382757
    29  H    0.000002  -0.000004   0.001128  -0.000080  -0.024041   0.378109
    30  H    0.000035  -0.000000   0.000047  -0.004410  -0.000000  -0.000009
    31  H   -0.000042   0.000000  -0.000006   0.000342  -0.000001  -0.000031
    32  H    0.000000  -0.000000   0.000000  -0.000010   0.000000  -0.000032
    33  H    0.000000  -0.000000   0.000001  -0.000020   0.000000  -0.000016
    34  H    0.000000   0.000000   0.000001  -0.000027   0.000019  -0.004652
    35  H    0.000000  -0.000000  -0.000002  -0.000019  -0.000004   0.000020
    36  H   -0.000041  -0.000000  -0.000000  -0.000003  -0.000000   0.000000
    37  H    0.000014   0.000000  -0.000000   0.000000   0.000000  -0.000000
    38  H   -0.000091  -0.000000  -0.000000  -0.000003   0.000000  -0.000000
              13         14         15         16         17         18
     1  C    0.000000  -0.000006   0.000000  -0.000000  -0.000000  -0.001118
     2  C   -0.000000   0.000000  -0.000000   0.000000   0.000000  -0.000004
     3  C   -0.000000  -0.000000   0.000000  -0.000000   0.000000  -0.000000
     4  C    0.000000   0.000000  -0.000000   0.000000   0.000000  -0.000002
     5  C   -0.000000   0.000021  -0.000000   0.000000   0.000000   0.000327
     6  C   -0.000004   0.000592  -0.000004   0.000000   0.000000  -0.028213
     7  C    0.000482  -0.024732   0.000284  -0.000005  -0.000010   0.431195
     8  O    0.000003   0.000202  -0.000000   0.000000   0.000000   0.000000
     9  C   -0.006429  -0.020586   0.000657  -0.000012   0.000064   0.000294
    10  C   -0.021279   0.359558  -0.019908   0.000864   0.001195  -0.025924
    11  C   -0.018959  -0.006940   0.000026  -0.000014   0.001023  -0.000001
    12  C    0.329319  -0.033883   0.001446   0.001384  -0.032375   0.000000
    13  N    6.515874   0.327306  -0.034594  -0.031325   0.334190   0.000001
    14  C    0.327306   4.736489   0.365911  -0.033307  -0.046978  -0.001895
    15  C   -0.034594   0.365911   4.758879   0.360489  -0.031409  -0.000196
    16  C   -0.031325  -0.033307   0.360489   4.757518   0.363053   0.000001
    17  C    0.334190  -0.046978  -0.031409   0.363053   4.714519  -0.000000
    18  O    0.000001  -0.001895  -0.000196   0.000001  -0.000000   7.863764
    19  C    0.000000  -0.000000   0.000000  -0.000000  -0.000000  -0.001685
    20  H    0.000341  -0.018783  -0.005342   0.000054  -0.000005  -0.000953
    21  H   -0.000062  -0.000200  -0.000002   0.000000  -0.000004  -0.000006
    22  H   -0.023891   0.378758  -0.024921  -0.000334  -0.001926   0.000274
    23  H    0.000000  -0.000000   0.000000  -0.000000  -0.000000   0.000000
    24  H   -0.000000   0.000000  -0.000000   0.000000   0.000000  -0.000000
    25  H    0.000000   0.000000  -0.000000  -0.000000  -0.000000   0.000000
    26  H    0.000759   0.000053   0.000000   0.000000  -0.000018   0.000000
    27  H    0.000375   0.000059   0.000001   0.000000  -0.000018  -0.000004
    28  H   -0.024372   0.001849  -0.000032  -0.000010  -0.000385   0.000000
    29  H   -0.020777  -0.000966  -0.000018   0.000026  -0.005088  -0.000000
    30  H   -0.000202  -0.020918   0.384412  -0.022091   0.000965   0.000007
    31  H    0.001132  -0.019905   0.383962  -0.020004   0.001265   0.000129
    32  H    0.001020   0.000920  -0.020944   0.384242  -0.021337   0.000000
    33  H    0.000524   0.001338  -0.021273   0.385001  -0.021000  -0.000000
    34  H   -0.021354  -0.001219   0.000539  -0.023524   0.378565  -0.000000
    35  H   -0.021275   0.001989   0.001295  -0.019428   0.383574   0.000000
    36  H   -0.000000   0.000000  -0.000000   0.000000   0.000000  -0.000460
    37  H    0.000000  -0.000000   0.000000  -0.000000  -0.000000   0.000067
    38  H   -0.000000   0.000000  -0.000000   0.000000   0.000000  -0.000305
              19         20         21         22         23         24
     1  C    0.381451  -0.000018   0.000001  -0.000004  -0.024985   0.001327
     2  C   -0.030431   0.000000   0.000000   0.000000   0.394269  -0.024809
     3  C    0.000888   0.000000   0.000000   0.000000  -0.026888   0.393691
     4  C    0.000012   0.000001  -0.000040  -0.000000   0.001432  -0.025070
     5  C    0.000717   0.000028   0.002551   0.000002   0.000048   0.001363
     6  C   -0.023930   0.000729  -0.000031   0.000123   0.001249   0.000007
     7  C   -0.002612  -0.024787   0.001219  -0.005397  -0.000014   0.000001
     8  O   -0.000001   0.000179  -0.021560  -0.000005   0.000000  -0.000005
     9  C   -0.000000  -0.023419   0.380294   0.000346  -0.000000   0.000000
    10  C    0.000007   0.381276  -0.024674  -0.025745   0.000000  -0.000000
    11  C   -0.000000   0.001258  -0.026639  -0.000263  -0.000000  -0.000000
    12  C    0.000000   0.000005  -0.002166  -0.003443  -0.000000   0.000000
    13  N    0.000000   0.000341  -0.000062  -0.023891   0.000000  -0.000000
    14  C   -0.000000  -0.018783  -0.000200   0.378758  -0.000000   0.000000
    15  C    0.000000  -0.005342  -0.000002  -0.024921   0.000000  -0.000000
    16  C   -0.000000   0.000054   0.000000  -0.000334  -0.000000   0.000000
    17  C   -0.000000  -0.000005  -0.000004  -0.001926  -0.000000   0.000000
    18  O   -0.001685  -0.000953  -0.000006   0.000274   0.000000  -0.000000
    19  C    4.712994  -0.000000  -0.000000  -0.000000  -0.004283  -0.000016
    20  H   -0.000000   0.618657  -0.005757   0.001599  -0.000000   0.000000
    21  H   -0.000000  -0.005757   0.622803  -0.000016   0.000000  -0.000000
    22  H   -0.000000   0.001599  -0.000016   0.661717  -0.000000  -0.000000
    23  H   -0.004283  -0.000000   0.000000  -0.000000   0.605379  -0.003749
    24  H   -0.000016   0.000000  -0.000000  -0.000000  -0.003749   0.593774
    25  H    0.000000  -0.000000  -0.000005  -0.000000  -0.000033  -0.003726
    26  H    0.000000  -0.000031  -0.002513   0.000006   0.000000  -0.000000
    27  H   -0.000000  -0.000001   0.001989  -0.000251   0.000000  -0.000000
    28  H    0.000000   0.000003   0.000198  -0.000048   0.000000  -0.000000
    29  H   -0.000000   0.000002   0.000002   0.001273   0.000000  -0.000000
    30  H    0.000000   0.000211   0.000009   0.001729   0.000000  -0.000000
    31  H    0.000000   0.000085  -0.000000  -0.004155  -0.000000   0.000000
    32  H    0.000000  -0.000001   0.000000   0.000040   0.000000  -0.000000
    33  H    0.000000  -0.000004  -0.000000  -0.000021   0.000000  -0.000000
    34  H    0.000000  -0.000000  -0.000000   0.001113   0.000000   0.000000
    35  H    0.000000   0.000001   0.000001  -0.000069   0.000000  -0.000000
    36  H    0.380629   0.000000   0.000000   0.000000   0.000076   0.000000
    37  H    0.382707   0.000000   0.000000  -0.000000   0.000146  -0.000003
    38  H    0.380720  -0.000000  -0.000000   0.000001   0.000067   0.000000
              25         26         27         28         29         30
     1  C    0.000039   0.000000  -0.000001   0.000000   0.000000   0.000000
     2  C    0.001395  -0.000000   0.000000  -0.000000  -0.000000  -0.000000
     3  C   -0.024740   0.000000   0.000001   0.000000   0.000000   0.000000
     4  C    0.393408  -0.000006  -0.000043  -0.000000   0.000000  -0.000000
     5  C   -0.025361   0.000030   0.000353  -0.000000   0.000000  -0.000000
     6  C    0.001244   0.000008  -0.000062  -0.000000   0.000001  -0.000001
     7  C   -0.000019  -0.000012   0.000168   0.000000   0.000002   0.000035
     8  O   -0.001111  -0.000591  -0.000536  -0.000003  -0.000004  -0.000000
     9  C    0.000037  -0.020044  -0.023395   0.000240   0.001128   0.000047
    10  C    0.000001   0.001163  -0.001982   0.000008  -0.000080  -0.004410
    11  C   -0.000002   0.383711   0.380669  -0.021636  -0.024041  -0.000000
    12  C    0.000000  -0.019686  -0.022177   0.382757   0.378109  -0.000009
    13  N    0.000000   0.000759   0.000375  -0.024372  -0.020777  -0.000202
    14  C    0.000000   0.000053   0.000059   0.001849  -0.000966  -0.020918
    15  C   -0.000000   0.000000   0.000001  -0.000032  -0.000018   0.384412
    16  C   -0.000000   0.000000   0.000000  -0.000010   0.000026  -0.022091
    17  C   -0.000000  -0.000018  -0.000018  -0.000385  -0.005088   0.000965
    18  O    0.000000   0.000000  -0.000004   0.000000  -0.000000   0.000007
    19  C    0.000000   0.000000  -0.000000   0.000000  -0.000000   0.000000
    20  H   -0.000000  -0.000031  -0.000001   0.000003   0.000002   0.000211
    21  H   -0.000005  -0.002513   0.001989   0.000198   0.000002   0.000009
    22  H   -0.000000   0.000006  -0.000251  -0.000048   0.001273   0.001729
    23  H   -0.000033   0.000000   0.000000   0.000000   0.000000   0.000000
    24  H   -0.003726  -0.000000  -0.000000  -0.000000  -0.000000  -0.000000
    25  H    0.589932   0.000001  -0.000001  -0.000000  -0.000000   0.000000
    26  H    0.000001   0.619505  -0.024323  -0.006087   0.000953   0.000000
    27  H   -0.000001  -0.024323   0.641973   0.001822  -0.006511  -0.000000
    28  H   -0.000000  -0.006087   0.001822   0.631792  -0.026856   0.000001
    29  H   -0.000000   0.000953  -0.006511  -0.026856   0.654865  -0.000001
    30  H    0.000000   0.000000  -0.000000   0.000001  -0.000001   0.630885
    31  H   -0.000000  -0.000000   0.000000   0.000001   0.000002  -0.023188
    32  H   -0.000000  -0.000000  -0.000000  -0.000000   0.000000   0.001704
    33  H    0.000000  -0.000000   0.000000   0.000001  -0.000002  -0.007120
    34  H    0.000000  -0.000001   0.000002  -0.000261   0.002070  -0.000028
    35  H   -0.000000   0.000000  -0.000000   0.000389  -0.000260  -0.000041
    36  H   -0.000000   0.000000  -0.000000  -0.000000   0.000000  -0.000000
    37  H    0.000000  -0.000000   0.000000   0.000000   0.000000  -0.000000
    38  H   -0.000000  -0.000000   0.000000   0.000000  -0.000000  -0.000000
              31         32         33         34         35         36
     1  C   -0.000000   0.000000   0.000000   0.000000   0.000000  -0.021077
     2  C    0.000000  -0.000000  -0.000000  -0.000000  -0.000000   0.000523
     3  C   -0.000000   0.000000   0.000000  -0.000000   0.000000  -0.000023
     4  C    0.000000  -0.000000  -0.000000   0.000000  -0.000000   0.000003
     5  C   -0.000000  -0.000000  -0.000000  -0.000000   0.000000  -0.000003
     6  C    0.000001  -0.000000  -0.000000  -0.000000  -0.000000  -0.001459
     7  C   -0.000042   0.000000   0.000000   0.000000   0.000000  -0.000041
     8  O    0.000000  -0.000000  -0.000000   0.000000  -0.000000  -0.000000
     9  C   -0.000006   0.000000   0.000001   0.000001  -0.000002  -0.000000
    10  C    0.000342  -0.000010  -0.000020  -0.000027  -0.000019  -0.000003
    11  C   -0.000001   0.000000   0.000000   0.000019  -0.000004  -0.000000
    12  C   -0.000031  -0.000032  -0.000016  -0.004652   0.000020   0.000000
    13  N    0.001132   0.001020   0.000524  -0.021354  -0.021275  -0.000000
    14  C   -0.019905   0.000920   0.001338  -0.001219   0.001989   0.000000
    15  C    0.383962  -0.020944  -0.021273   0.000539   0.001295  -0.000000
    16  C   -0.020004   0.384242   0.385001  -0.023524  -0.019428   0.000000
    17  C    0.001265  -0.021337  -0.021000   0.378565   0.383574   0.000000
    18  O    0.000129   0.000000  -0.000000  -0.000000   0.000000  -0.000460
    19  C    0.000000   0.000000   0.000000   0.000000   0.000000   0.380629
    20  H    0.000085  -0.000001  -0.000004  -0.000000   0.000001   0.000000
    21  H   -0.000000   0.000000  -0.000000  -0.000000   0.000001   0.000000
    22  H   -0.004155   0.000040  -0.000021   0.001113  -0.000069   0.000000
    23  H   -0.000000   0.000000   0.000000   0.000000   0.000000   0.000076
    24  H    0.000000  -0.000000  -0.000000   0.000000  -0.000000   0.000000
    25  H   -0.000000  -0.000000   0.000000   0.000000  -0.000000  -0.000000
    26  H   -0.000000  -0.000000  -0.000000  -0.000001   0.000000   0.000000
    27  H    0.000000  -0.000000   0.000000   0.000002  -0.000000  -0.000000
    28  H    0.000001  -0.000000   0.000001  -0.000261   0.000389  -0.000000
    29  H    0.000002   0.000000  -0.000002   0.002070  -0.000260   0.000000
    30  H   -0.023188   0.001704  -0.007120  -0.000028  -0.000041  -0.000000
    31  H    0.621417  -0.005911   0.001249  -0.000017  -0.000021   0.000000
    32  H   -0.005911   0.634016  -0.023391  -0.006184   0.001125  -0.000000
    33  H    0.001249  -0.023391   0.630231   0.001734  -0.005473  -0.000000
    34  H   -0.000017  -0.006184   0.001734   0.656467  -0.026757   0.000000
    35  H   -0.000021   0.001125  -0.005473  -0.026757   0.623668  -0.000000
    36  H    0.000000  -0.000000  -0.000000   0.000000  -0.000000   0.603925
    37  H   -0.000000  -0.000000   0.000000   0.000000   0.000000  -0.021758
    38  H    0.000000   0.000000  -0.000000  -0.000000  -0.000000  -0.018389
              37         38
     1  C   -0.020529  -0.021108
     2  C   -0.005669   0.000881
     3  C    0.000062  -0.000024
     4  C   -0.000000   0.000002
     5  C   -0.000016   0.000004
     6  C    0.001119  -0.002163
     7  C    0.000014  -0.000091
     8  O    0.000000  -0.000000
     9  C   -0.000000  -0.000000
    10  C    0.000000  -0.000003
    11  C    0.000000   0.000000
    12  C   -0.000000  -0.000000
    13  N    0.000000  -0.000000
    14  C   -0.000000   0.000000
    15  C    0.000000  -0.000000
    16  C   -0.000000   0.000000
    17  C   -0.000000   0.000000
    18  O    0.000067  -0.000305
    19  C    0.382707   0.380720
    20  H    0.000000  -0.000000
    21  H    0.000000  -0.000000
    22  H   -0.000000   0.000001
    23  H    0.000146   0.000067
    24  H   -0.000003   0.000000
    25  H    0.000000  -0.000000
    26  H   -0.000000  -0.000000
    27  H    0.000000   0.000000
    28  H    0.000000   0.000000
    29  H    0.000000  -0.000000
    30  H   -0.000000  -0.000000
    31  H   -0.000000   0.000000
    32  H   -0.000000   0.000000
    33  H    0.000000  -0.000000
    34  H    0.000000  -0.000000
    35  H    0.000000  -0.000000
    36  H   -0.021758  -0.018389
    37  H    0.625510  -0.022333
    38  H   -0.022333   0.610737
 Mulliken charges:
               1
     1  C    0.035226
     2  C   -0.080834
     3  C   -0.048133
     4  C   -0.086386
     5  C    0.134315
     6  C   -0.068591
     7  C    0.180937
     8  O   -0.249819
     9  C    0.085927
    10  C   -0.070450
    11  C   -0.113222
    12  C   -0.017549
    13  N   -0.286806
    14  C    0.055273
    15  C   -0.099255
    16  C   -0.102578
    17  C   -0.017860
    18  O   -0.235293
    19  C   -0.177167
    20  H    0.074671
    21  H    0.074610
    22  H    0.043508
    23  H    0.057285
    24  H    0.067215
    25  H    0.068942
    26  H    0.067123
    27  H    0.051893
    28  H    0.060629
    29  H    0.046171
    30  H    0.058002
    31  H    0.063697
    32  H    0.054741
    33  H    0.058238
    34  H    0.043513
    35  H    0.061285
    36  H    0.078056
    37  H    0.060683
    38  H    0.072003
 Sum of Mulliken charges =  -0.00000
 Mulliken charges with hydrogens summed into heavy atoms:
               1
     1  C    0.035226
     2  C   -0.023549
     3  C    0.019082
     4  C   -0.017445
     5  C    0.134315
     6  C   -0.068591
     7  C    0.180937
     8  O   -0.249819
     9  C    0.160537
    10  C    0.004221
    11  C    0.005794
    12  C    0.089251
    13  N   -0.286806
    14  C    0.098781
    15  C    0.022444
    16  C    0.010401
    17  C    0.086939
    18  O   -0.235293
    19  C    0.033575
 Electronic spatial extent (au):  <R**2>=           5085.2496
 Charge=             -0.0000 electrons
 Dipole moment (field-independent basis, Debye):
    X=             -0.3375    Y=             -0.3409    Z=              1.3114  Tot=              1.3964
 Quadrupole moment (field-independent basis, Debye-Ang):
   XX=           -100.3500   YY=           -109.7597   ZZ=           -104.6515
   XY=             -0.0607   XZ=             -0.2741   YZ=             -1.1465
 Traceless Quadrupole moment (field-independent basis, Debye-Ang):
   XX=              4.5704   YY=             -4.8393   ZZ=              0.2689
   XY=             -0.0607   XZ=             -0.2741   YZ=             -1.1465
 Octapole moment (field-independent basis, Debye-Ang**2):
  XXX=             14.3981  YYY=            -10.5350  ZZZ=             -7.2241  XYY=              0.7967
  XXY=              4.9092  XXZ=              8.7038  XZZ=             -7.1401  YZZ=              5.2790
  YYZ=              4.8843  XYZ=              1.8620
 Hexadecapole moment (field-independent basis, Debye-Ang**3):
 XXXX=          -4574.8895 YYYY=          -1383.3252 ZZZZ=           -389.6440 XXXY=            -23.3480
 XXXZ=             13.2933 YYYX=              7.0893 YYYZ=              2.0701 ZZZX=             -2.3209
 ZZZY=              3.1085 XXYY=           -987.6139 XXZZ=           -862.8444 YYZZ=           -296.1366
 XXYZ=              7.0710 YYXZ=             -3.2311 ZZXY=              5.4919
 N-N= 1.492239960185D+03 E-N=-4.879680454336D+03  KE= 8.035695869729D+02
 ******************************Gaussian NBO Version 3.1******************************
             N A T U R A L   A T O M I C   O R B I T A L   A N D
          N A T U R A L   B O N D   O R B I T A L   A N A L Y S I S
 ******************************Gaussian NBO Version 3.1******************************
       /RESON  / : Allow strongly delocalized NBO set
       /NLMO   / : Form Natural Localized Molecular Orbitals
       /NMR /    : Analyze NMR Sheilding Tensor 

 Analyzing the SCF density

 Job title: Title Card Required                                             

 Storage needed:     43472 in NPA,     53775 in NBO,    102144 in NLMO ( 104850000 available)
 GSVD:  LWork=      -13908 too small for GESVD, short by       66690 words or       66690 for optimal perf.


 NATURAL POPULATIONS:  Natural atomic orbital occupancies 
                                                          
   NAO  Atom  No  lang   Type(AO)    Occupancy      Energy
 ----------------------------------------------------------
     1    C    1  S      Cor( 1S)     1.99991     -10.98363
     2    C    1  S      Val( 2S)     1.08213      -0.20061
     3    C    1  px     Val( 2p)     0.95772       0.15103
     4    C    1  py     Val( 2p)     0.94625       0.14440
     5    C    1  pz     Val( 2p)     0.93562       0.04026

     6    C    2  S      Cor( 1S)     1.99995     -10.94574
     7    C    2  S      Val( 2S)     1.07966      -0.18439
     8    C    2  px     Val( 2p)     0.97570       0.14563
     9    C    2  py     Val( 2p)     0.97788       0.14431
    10    C    2  pz     Val( 2p)     1.04255       0.01485

    11    C    3  S      Cor( 1S)     1.99994     -10.96322
    12    C    3  S      Val( 2S)     1.07966      -0.18790
    13    C    3  px     Val( 2p)     0.98309       0.13595
    14    C    3  py     Val( 2p)     0.98246       0.13691
    15    C    3  pz     Val( 2p)     0.96211       0.02792

    16    C    4  S      Cor( 1S)     1.99994     -10.94724
    17    C    4  S      Val( 2S)     1.07686      -0.18456
    18    C    4  px     Val( 2p)     0.97767       0.14293
    19    C    4  py     Val( 2p)     0.99260       0.13449
    20    C    4  pz     Val( 2p)     1.04832       0.01133

    21    C    5  S      Cor( 1S)     1.99978     -11.03345
    22    C    5  S      Val( 2S)     1.05695      -0.21181
    23    C    5  px     Val( 2p)     0.89470       0.12751
    24    C    5  py     Val( 2p)     0.92223       0.15012
    25    C    5  pz     Val( 2p)     0.93524       0.01430

    26    C    6  S      Cor( 1S)     1.99991     -10.95975
    27    C    6  S      Val( 2S)     1.08508      -0.20531
    28    C    6  px     Val( 2p)     0.98532       0.12705
    29    C    6  py     Val( 2p)     0.97369       0.13559
    30    C    6  pz     Val( 2p)     1.08796      -0.00086

    31    C    7  S      Cor( 1S)     1.99996     -11.05351
    32    C    7  S      Val( 2S)     1.07824      -0.24315
    33    C    7  px     Val( 2p)     0.93632       0.10913
    34    C    7  py     Val( 2p)     0.85261       0.17481
    35    C    7  pz     Val( 2p)     0.89384      -0.00087

    36    O    8  S      Cor( 1S)     1.99999     -20.20842
    37    O    8  S      Val( 2S)     1.72574      -1.01662
    38    O    8  px     Val( 2p)     1.13401      -0.04892
    39    O    8  py     Val( 2p)     1.64194      -0.28080
    40    O    8  pz     Val( 2p)     1.75233      -0.32697

    41    C    9  S      Cor( 1S)     1.99988     -11.05890
    42    C    9  S      Val( 2S)     1.08366      -0.23703
    43    C    9  px     Val( 2p)     0.81496       0.10425
    44    C    9  py     Val( 2p)     0.96657       0.07153
    45    C    9  pz     Val( 2p)     0.98065       0.06438

    46    C   10  S      Cor( 1S)     1.99996     -11.00565
    47    C   10  S      Val( 2S)     1.10441      -0.23291
    48    C   10  px     Val( 2p)     0.99331       0.06320
    49    C   10  py     Val( 2p)     0.97447       0.07728
    50    C   10  pz     Val( 2p)     1.01512       0.06786

    51    C   11  S      Cor( 1S)     1.99996     -10.99262
    52    C   11  S      Val( 2S)     1.09195      -0.21452
    53    C   11  px     Val( 2p)     0.98172       0.07700
    54    C   11  py     Val( 2p)     1.02885       0.06720
    55    C   11  pz     Val( 2p)     0.98910       0.07517

    56    C   12  S      Cor( 1S)     1.99993     -11.01741
    57    C   12  S      Val( 2S)     1.07419      -0.20359
    58    C   12  px     Val( 2p)     0.96187       0.07968
    59    C   12  py     Val( 2p)     0.96804       0.07765
    60    C   12  pz     Val( 2p)     0.95761       0.09406

    61    N   13  S      Cor( 1S)     1.99999     -15.24820
    62    N   13  S      Val( 2S)     1.44672      -0.60098
    63    N   13  px     Val( 2p)     1.05949       0.02867
    64    N   13  py     Val( 2p)     1.17900      -0.01306
    65    N   13  pz     Val( 2p)     1.58928      -0.17706

    66    C   14  S      Cor( 1S)     1.99994     -11.02646
    67    C   14  S      Val( 2S)     1.08291      -0.21558
    68    C   14  px     Val( 2p)     0.92581       0.09838
    69    C   14  py     Val( 2p)     0.90607       0.09689
    70    C   14  pz     Val( 2p)     0.98293       0.08191

    71    C   15  S      Cor( 1S)     1.99997     -10.97825
    72    C   15  S      Val( 2S)     1.08604      -0.19367
    73    C   15  px     Val( 2p)     0.96768       0.08815
    74    C   15  py     Val( 2p)     1.00762       0.09175
    75    C   15  pz     Val( 2p)     1.00761       0.09027

    76    C   16  S      Cor( 1S)     1.99997     -10.97896
    77    C   16  S      Val( 2S)     1.08263      -0.19239
    78    C   16  px     Val( 2p)     0.99246       0.08952
    79    C   16  py     Val( 2p)     0.98758       0.09072
    80    C   16  pz     Val( 2p)     1.00560       0.08817

    81    C   17  S      Cor( 1S)     1.99995     -11.00982
    82    C   17  S      Val( 2S)     1.07465      -0.19731
    83    C   17  px     Val( 2p)     0.92078       0.09825
    84    C   17  py     Val( 2p)     0.97723       0.07873
    85    C   17  pz     Val( 2p)     0.99066       0.08777

    86    O   18  S      Cor( 1S)     1.99999     -20.10951
    87    O   18  S      Val( 2S)     1.80659      -1.05908
    88    O   18  px     Val( 2p)     1.86512      -0.33217
    89    O   18  py     Val( 2p)     1.35746      -0.11346
    90    O   18  pz     Val( 2p)     1.21778      -0.12290

    91    C   19  S      Cor( 1S)     1.99997     -10.97577
    92    C   19  S      Val( 2S)     1.07813      -0.18623
    93    C   19  px     Val( 2p)     1.04242       0.07203
    94    C   19  py     Val( 2p)     0.98881       0.08343
    95    C   19  pz     Val( 2p)     1.03667       0.07512

    96    H   20  S      Val( 1S)     0.94737       0.05898

    97    H   21  S      Val( 1S)     0.96297       0.05537

    98    H   22  S      Val( 1S)     0.98769       0.04405

    99    H   23  S      Val( 1S)     0.96785       0.06763

   100    H   24  S      Val( 1S)     0.96088       0.06190

   101    H   25  S      Val( 1S)     0.95593       0.07445

   102    H   26  S      Val( 1S)     0.95434       0.06520

   103    H   27  S      Val( 1S)     0.96936       0.05411

   104    H   28  S      Val( 1S)     0.96726       0.06256

   105    H   29  S      Val( 1S)     0.98181       0.05230

   106    H   30  S      Val( 1S)     0.96283       0.07268

   107    H   31  S      Val( 1S)     0.95782       0.07667

   108    H   32  S      Val( 1S)     0.96570       0.06805

   109    H   33  S      Val( 1S)     0.96237       0.07212

   110    H   34  S      Val( 1S)     0.98393       0.05422

   111    H   35  S      Val( 1S)     0.96574       0.06465

   112    H   36  S      Val( 1S)     0.93842       0.08431

   113    H   37  S      Val( 1S)     0.95596       0.07379

   114    H   38  S      Val( 1S)     0.94418       0.07965


 Summary of Natural Population Analysis:                  
                                                          
                                       Natural Population 
                Natural  -----------------------------------------------
    Atom  No    Charge         Core      Valence    Rydberg      Total
 -----------------------------------------------------------------------
      C    1    0.07837      1.99991     3.92172    0.00000     5.92163
      C    2   -0.07573      1.99995     4.07579    0.00000     6.07573
      C    3   -0.00726      1.99994     4.00732    0.00000     6.00726
      C    4   -0.09539      1.99994     4.09545    0.00000     6.09539
      C    5    0.19110      1.99978     3.80912    0.00000     5.80890
      C    6   -0.13196      1.99991     4.13206    0.00000     6.13196
      C    7    0.23903      1.99996     3.76101    0.00000     5.76097
      O    8   -0.25401      1.99999     6.25402    0.00000     8.25401
      C    9    0.15428      1.99988     3.84584    0.00000     5.84572
      C   10   -0.08727      1.99996     4.08731    0.00000     6.08727
      C   11   -0.09158      1.99996     4.09162    0.00000     6.09158
      C   12    0.03836      1.99993     3.96171    0.00000     5.96164
      N   13   -0.27448      1.99999     5.27449    0.00000     7.27448
      C   14    0.10234      1.99994     3.89772    0.00000     5.89766
      C   15   -0.06892      1.99997     4.06896    0.00000     6.06892
      C   16   -0.06825      1.99997     4.06828    0.00000     6.06825
      C   17    0.03673      1.99995     3.96332    0.00000     5.96327
      O   18   -0.24695      1.99999     6.24696    0.00000     8.24695
      C   19   -0.14600      1.99997     4.14602    0.00000     6.14600
      H   20    0.05263      0.00000     0.94737    0.00000     0.94737
      H   21    0.03703      0.00000     0.96297    0.00000     0.96297
      H   22    0.01231      0.00000     0.98769    0.00000     0.98769
      H   23    0.03215      0.00000     0.96785    0.00000     0.96785
      H   24    0.03912      0.00000     0.96088    0.00000     0.96088
      H   25    0.04407      0.00000     0.95593    0.00000     0.95593
      H   26    0.04566      0.00000     0.95434    0.00000     0.95434
      H   27    0.03064      0.00000     0.96936    0.00000     0.96936
      H   28    0.03274      0.00000     0.96726    0.00000     0.96726
      H   29    0.01819      0.00000     0.98181    0.00000     0.98181
      H   30    0.03717      0.00000     0.96283    0.00000     0.96283
      H   31    0.04218      0.00000     0.95782    0.00000     0.95782
      H   32    0.03430      0.00000     0.96570    0.00000     0.96570
      H   33    0.03763      0.00000     0.96237    0.00000     0.96237
      H   34    0.01607      0.00000     0.98393    0.00000     0.98393
      H   35    0.03426      0.00000     0.96574    0.00000     0.96574
      H   36    0.06158      0.00000     0.93842    0.00000     0.93842
      H   37    0.04404      0.00000     0.95596    0.00000     0.95596
      H   38    0.05582      0.00000     0.94418    0.00000     0.94418
 =======================================================================
   * Total *   -0.00000     37.99889   100.00111    0.00000   138.00000

                                 Natural Population      
 --------------------------------------------------------
   Core                      37.99889 ( 99.9971% of  38)
   Valence                  100.00111 (100.0011% of 100)
   Natural Minimal Basis    138.00000 (100.0000% of 138)
   Natural Rydberg Basis      0.00000 (  0.0000% of 138)
 --------------------------------------------------------

    Atom  No          Natural Electron Configuration
 ----------------------------------------------------------------------------
      C    1      [core]2S( 1.08)2p( 2.84)
      C    2      [core]2S( 1.08)2p( 3.00)
      C    3      [core]2S( 1.08)2p( 2.93)
      C    4      [core]2S( 1.08)2p( 3.02)
      C    5      [core]2S( 1.06)2p( 2.75)
      C    6      [core]2S( 1.09)2p( 3.05)
      C    7      [core]2S( 1.08)2p( 2.68)
      O    8      [core]2S( 1.73)2p( 4.53)
      C    9      [core]2S( 1.08)2p( 2.76)
      C   10      [core]2S( 1.10)2p( 2.98)
      C   11      [core]2S( 1.09)2p( 3.00)
      C   12      [core]2S( 1.07)2p( 2.89)
      N   13      [core]2S( 1.45)2p( 3.83)
      C   14      [core]2S( 1.08)2p( 2.81)
      C   15      [core]2S( 1.09)2p( 2.98)
      C   16      [core]2S( 1.08)2p( 2.99)
      C   17      [core]2S( 1.07)2p( 2.89)
      O   18      [core]2S( 1.81)2p( 4.44)
      C   19      [core]2S( 1.08)2p( 3.07)
      H   20            1S( 0.95)
      H   21            1S( 0.96)
      H   22            1S( 0.99)
      H   23            1S( 0.97)
      H   24            1S( 0.96)
      H   25            1S( 0.96)
      H   26            1S( 0.95)
      H   27            1S( 0.97)
      H   28            1S( 0.97)
      H   29            1S( 0.98)
      H   30            1S( 0.96)
      H   31            1S( 0.96)
      H   32            1S( 0.97)
      H   33            1S( 0.96)
      H   34            1S( 0.98)
      H   35            1S( 0.97)
      H   36            1S( 0.94)
      H   37            1S( 0.96)
      H   38            1S( 0.94)


 NATURAL BOND ORBITAL ANALYSIS:

                       Occupancies       Lewis Structure    Low   High
           Occ.    -------------------  -----------------   occ   occ
  Cycle   Thresh.   Lewis   Non-Lewis     CR  BD  3C  LP    (L)   (NL)   Dev
 =============================================================================
   1(1)    1.90   134.43735   3.56265     19  43   0   7     3      3    0.45
   2(2)    1.90   134.43735   3.56265     19  43   0   7     3      3    0.45
   3(1)    1.80   134.35782   3.64218     19  42   0   8     3      3    0.45
   4(2)    1.80   134.35782   3.64218     19  42   0   8     3      3    0.45
   5(1)    1.70   134.35782   3.64218     19  42   0   8     3      3    0.45
   6(2)    1.70   134.35782   3.64218     19  42   0   8     3      3    0.45
   7(1)    1.60   135.52661   2.47339     19  44   0   6     1      3    0.43
   8(2)    1.60   136.14219   1.85781     19  45   0   5     0      3    0.43
   9(3)    1.60   136.08963   1.91037     19  45   0   5     0      3    0.45
  10(4)    1.60   136.14219   1.85781     19  45   0   5     0      3    0.43
  11(1)    1.50   136.14219   1.85781     19  45   0   5     0      3    0.43
  12(2)    1.50   136.08963   1.91037     19  45   0   5     0      3    0.45
  13(3)    1.50   136.14219   1.85781     19  45   0   5     0      3    0.43
  14(1)    1.60   136.14219   1.85781     19  45   0   5     0      3    0.43
 -----------------------------------------------------------------------------

 Structure accepted: RESONANCE keyword permits strongly delocalized structure

 --------------------------------------------------------
   Core                     37.99888 ( 99.997% of  38)
   Valence Lewis            98.14331 ( 98.143% of 100)
  ==================       ============================
   Total Lewis             136.14219 ( 98.654% of 138)
  -----------------------------------------------------
   Valence non-Lewis         1.85781 (  1.346% of 138)
   Rydberg non-Lewis         0.00000 (  0.000% of 138)
  ==================       ============================
   Total non-Lewis           1.85781 (  1.346% of 138)
 --------------------------------------------------------


       (Occupancy)   Bond orbital/ Coefficients/ Hybrids
 ---------------------------------------------------------------------------------
     1. (1.98536) BD ( 1) C   1 - C   2  
                ( 50.00%)   0.7071* C   1 s( 33.74%)p 1.96( 66.26%)
                                            0.0000  0.5809  0.7173 -0.3726  0.0956
                ( 50.00%)   0.7071* C   2 s( 34.46%)p 1.90( 65.54%)
                                            0.0001  0.5870 -0.7141  0.3736 -0.0774
     2. (1.66105) BD ( 2) C   1 - C   2  
                ( 45.50%)   0.6745* C   1 s(  0.00%)p 1.00(100.00%)
                                            0.0000 -0.0007 -0.2625 -0.2685  0.9268
                ( 54.50%)   0.7382* C   2 s(  0.00%)p 1.00(100.00%)
                                           -0.0000 -0.0023 -0.2468 -0.2757  0.9290
     3. (1.98093) BD ( 1) C   1 - C   6  
                ( 49.46%)   0.7033* C   1 s( 34.65%)p 1.89( 65.35%)
                                            0.0001  0.5886 -0.6416 -0.3933 -0.2952
                ( 50.54%)   0.7109* C   6 s( 35.43%)p 1.82( 64.57%)
                                            0.0000  0.5953  0.6095  0.4336  0.2935
     4. (1.98739) BD ( 1) C   1 - C  19  
                ( 50.12%)   0.7079* C   1 s( 31.61%)p 2.16( 68.39%)
                                           -0.0000  0.5622 -0.0697  0.7965  0.2114
                ( 49.88%)   0.7063* C  19 s( 25.58%)p 2.91( 74.42%)
                                            0.0001  0.5058  0.0482 -0.8315 -0.2245
     5. (1.98981) BD ( 1) C   2 - C   3  
                ( 49.55%)   0.7039* C   2 s( 34.19%)p 1.92( 65.81%)
                                            0.0001  0.5848  0.0952 -0.7792 -0.2045
                ( 50.45%)   0.7103* C   3 s( 34.32%)p 1.91( 65.68%)
                                            0.0000  0.5859 -0.0796  0.7788  0.2097
     6. (1.98880) BD ( 1) C   2 - H  23  
                ( 51.63%)   0.7186* C   2 s( 31.35%)p 2.19( 68.65%)
                                           -0.0001  0.5599  0.6482  0.4211  0.2985
                ( 48.37%)   0.6955* H  23 s(100.00%)
[...]
 NLMO      Total    Paramagnetic  Diamagnetic   Paramagnetic  Diamagnetic
    3      -0.5058       -0.6227       0.1169        -1.1758       0.6700
    4       0.1431       -1.0144       1.1575        -0.8439       0.9870
    8       0.3968       -0.2221       0.6189        -0.6462       1.0430
   13       1.2268        0.1817       1.0452        -0.2634       1.4902
   15     -10.4201      -10.5758       0.1558       -11.1775       0.7575
   16     -10.0532      -10.5316       0.4784       -10.7715       0.7183
   17    -118.1966     -127.7703       9.5737      -127.5583       9.3617
   18     -26.1783      -51.7004      25.5221       -51.2624      25.0841
   20      -1.4519       -1.5915       0.1396        -1.4353      -0.0166
   23      -0.2204       -0.4918       0.2714        -1.2969       1.0765
   37      -0.1542       -1.0267       0.8725        -0.8236       0.6693
   43      -0.3526       -1.8226       1.4700        -1.3339       0.9813
   45      -0.3813       -1.5337       1.1524        -1.3398       0.9585
   63     271.9175       -0.0056     271.9231        -0.0056     271.9230
   68     -34.2444      -69.4386      35.1943       -69.3256      35.0813
   69    -418.2914     -455.4091      37.1177      -457.9735      39.6821
 Sum     -346.7659     -733.5752     386.8093      -737.2330     390.4671

 Contributions to Isotropic shielding for atom   19 (   218.0238 ppm):
                         Standard Origin              Atomic Origin
 NLMO      Total    Paramagnetic  Diamagnetic   Paramagnetic  Diamagnetic
    1      -1.9127       -1.3685      -0.5442        -2.4103       0.4976
    2      -0.8348       -0.7588      -0.0760        -2.4912       1.6564
    3      -1.0094       -1.4941       0.4847        -1.3139       0.3045
    4       3.4370      -10.7441      14.1811        -3.5383       6.9753
    6      -0.6623       -1.6296       0.9673        -1.6993       1.0370
    8       0.8326       -0.3450       1.1775        -0.3528       1.1854
   15      -0.3514        0.0246      -0.3761        -1.1913       0.8399
   17      -0.4301       -0.2997      -0.1304        -1.1616       0.7315
   18       0.2668        0.2079       0.0589        -1.2191       1.4859
   43       7.2310       -2.5172       9.7482        -4.2269      11.4578
   44       4.0812        4.5513      -0.4701        -7.0945      11.1758
   45       7.0176       -7.4952      14.5128        -4.3846      11.4021
   64     200.0784       -0.0031     200.0815         0.0031     200.0753
 Sum      217.7439      -21.8714     239.6153       -31.0806     248.8245

 Contributions to Isotropic shielding for atom   20 (    30.6822 ppm):
                         Standard Origin              Atomic Origin
 NLMO      Total    Paramagnetic  Diamagnetic   Paramagnetic  Diamagnetic
   13       0.1294       -0.4361       0.5655        -1.0640       1.1934
   16       1.9105        1.7183       0.1921         1.0381       0.8724
   17      -0.3054       -0.4298       0.1245        -1.0169       0.7116
   18       0.0535       -0.1961       0.2496        -1.1761       1.2296
   20       1.2090        1.0380       0.1710         0.3220       0.8869
   22      -0.0505       -0.6070       0.5565        -1.1626       1.1121
   23       1.2029        1.3888      -0.1859         0.4209       0.7820
   24      25.7123       -0.0172      25.7294         0.4129      25.2993
   33      -0.2150       -0.5784       0.3634        -1.2257       1.0107
   36      -0.0991       -1.7057       1.6066        -0.9383       0.8392
 Sum       29.5475        0.1749      29.3726        -4.3895      33.9371

 Contributions to Isotropic shielding for atom   21 (    29.6560 ppm):
                         Standard Origin              Atomic Origin
 NLMO      Total    Paramagnetic  Diamagnetic   Paramagnetic  Diamagnetic
   13       0.1773       -0.3816       0.5589        -0.8650       1.0423
   19       0.8324        1.3062      -0.4738        -1.2936       2.1260
   20       0.8786        0.3065       0.5720        -0.2180       1.0965
   21       0.4791        0.9750      -0.4960        -0.6491       1.1281
   22      26.0689        0.2090      25.8599         0.8274      25.2416
   24       0.0180       -0.1071       0.1251        -1.0855       1.1034
   28       0.1645       -0.6890       0.8535        -0.9665       1.1310
 Sum       28.6188        1.6190      26.9997        -4.2502      32.8689

 Contributions to Isotropic shielding for atom   22 (    32.5781 ppm):
                         Standard Origin              Atomic Origin
 NLMO      Total    Paramagnetic  Diamagnetic   Paramagnetic  Diamagnetic
   16       0.1443        0.2538      -0.1095        -0.9193       1.0636
   18      -0.0568       -0.4152       0.3584        -1.3602       1.3033
   23       1.3307       -0.6946       2.0254         0.5459       0.7849
   31       0.6550        1.1662      -0.5113         0.1237       0.5313
   33       0.5512        1.2925      -0.7413        -0.2819       0.8330
   34      26.4067        0.2830      26.1237         0.5602      25.8465
   37       0.1170       -1.1540       1.2710        -0.9007       1.0178
   38       0.1999       -1.3222       1.5221        -0.6796       0.8796
   41       0.1759       -1.0853       1.2612        -0.5751       0.7510
 Sum       29.5239       -1.6759      31.1998        -3.4870      33.0110

 Contributions to Isotropic shielding for atom   23 (    25.9282 ppm):
                         Standard Origin              Atomic Origin
 NLMO      Total    Paramagnetic  Diamagnetic   Paramagnetic  Diamagnetic
    1      -1.3704       -2.7967       1.4264        -1.9420       0.5716
    2       0.9086        1.4794      -0.5708        -2.4500       3.3586
    4      -0.6963        0.7407      -1.4370        -1.7805       1.0842
    5      -2.0201       -1.2043      -0.8158        -2.7167       0.6966
    6      27.0168        0.9491      26.0677         1.5338      25.4830
    9      -0.0761       -0.2331       0.1570        -1.1798       1.1037
   13       0.5291        0.8489      -0.3198        -0.7249       1.2540
   44      -0.1355       -1.1819       1.0464        -0.9194       0.7839
 Sum       24.1561       -1.3978      25.5539       -10.1795      34.3356

 Contributions to Isotropic shielding for atom   24 (    25.3033 ppm):
                         Standard Origin              Atomic Origin
 NLMO      Total    Paramagnetic  Diamagnetic   Paramagnetic  Diamagnetic
    2       1.2866        0.8436       0.4430         0.2292       1.0574
    5      -2.0362       -2.0122      -0.0240        -2.7672       0.7310
    6      -0.1079        0.1318      -0.2397        -1.2375       1.1296
    7      -1.9146       -2.6377       0.7231        -2.6296       0.7150
    8       0.4406        1.3573      -0.9166        -2.3842       2.8248
    9      26.8936        1.1025      25.7911         1.6017      25.2919
   11      -0.1142        0.6025      -0.7167        -1.2232       1.1090
   13       0.4926        0.7493      -0.2567        -0.8796       1.3722
 Sum       24.9406        0.1370      24.8036        -9.2903      34.2309

 Contributions to Isotropic shielding for atom   25 (    25.7050 ppm):
                         Standard Origin              Atomic Origin
 NLMO      Total    Paramagnetic  Diamagnetic   Paramagnetic  Diamagnetic
    2       1.2328       -0.3913       1.6241        -0.0007       1.2335
    7      -1.8267       -0.9842      -0.8425        -2.5125       0.6858
    8       0.2051        0.2038       0.0014        -3.1998       3.4049
    9      -0.0538       -0.9190       0.8652        -1.1500       1.0962
   10      -0.9649       -2.5483       1.5834        -1.5243       0.5595
   11      26.5421        1.0660      25.4761         1.3225      25.2196
   14      -0.5178        0.4585      -0.9763        -2.1125       1.5947
   65      -0.2071       -0.4559       0.2488         0.8109      -1.0180
 Sum       24.4097       -3.5706      27.9803        -8.3664      32.7761

 Contributions to Isotropic shielding for atom   26 (    31.8421 ppm):
                         Standard Origin              Atomic Origin
 NLMO      Total    Paramagnetic  Diamagnetic   Paramagnetic  Diamagnetic
   19      -0.0705        0.1627      -0.2333        -1.3924       1.3218
   21       1.2667        0.7003       0.5664         0.3598       0.9069
   25       0.9138        2.0070      -1.0931        -0.0799       0.9937
   26      25.9856       -0.0160      26.0016         0.4456      25.5400
   27       2.1765        0.9366       1.2398         0.3544       1.8221
   29       0.0064       -0.8524       0.8588        -1.1701       1.1765
 Sum       30.2784        2.9382      27.3402        -1.4825      31.7609

 Contributions to Isotropic shielding for atom   27 (    33.0564 ppm):
                         Standard Origin              Atomic Origin
 NLMO      Total    Paramagnetic  Diamagnetic   Paramagnetic  Diamagnetic
   13      -0.1976       -0.6076       0.4099        -1.3878       1.1901
   21       1.5683       -0.5325       2.1009         0.7163       0.8520
   25       1.1542        0.5993       0.5549         0.1868       0.9674
   26       2.0316        1.2510       0.7806         0.1406       1.8910
   27      26.2553        0.2738      25.9816         0.3293      25.9260
   30      -0.0605       -1.2861       1.2256        -1.1979       1.1374
 Sum       30.7513       -0.3022      31.0535        -1.2127      31.9639

 Contributions to Isotropic shielding for atom   28 (    31.4944 ppm):
                         Standard Origin              Atomic Origin
 NLMO      Total    Paramagnetic  Diamagnetic   Paramagnetic  Diamagnetic
   25       1.0129        0.6598       0.3531        -0.0518       1.0647
   26      -0.0801        0.3582      -0.4382        -1.2126       1.1325
   28       0.7311        1.3191      -0.5880        -0.7028       1.4339
   29      26.3518        0.0905      26.2613         0.7282      25.6236
   30       1.5615        1.7409      -0.1794        -0.1748       1.7363
 Sum       29.5772        4.1685      25.4087        -1.4139      30.9911

 Contributions to Isotropic shielding for atom   29 (    32.5886 ppm):
                         Standard Origin              Atomic Origin
 NLMO      Total    Paramagnetic  Diamagnetic   Paramagnetic  Diamagnetic
   25       1.1876       -0.1820       1.3696         0.0831       1.1045
   27      -0.1338        0.1290      -0.2627        -1.2952       1.1614
   29       1.7038        2.1447      -0.4409        -0.1188       1.8226
   30      26.5943        0.2877      26.3066         0.7140      25.8804
   32      -0.2182       -0.0364      -0.1817        -1.0770       0.8589
   41       0.1116       -1.3396       1.4512        -0.7266       0.8382
 Sum       29.2454        1.0033      28.2421        -2.4206      31.6660

 Contributions to Isotropic shielding for atom   30 (    31.6057 ppm):
                         Standard Origin              Atomic Origin
 NLMO      Total    Paramagnetic  Diamagnetic   Paramagnetic  Diamagnetic
   18       0.0703       -0.1279       0.1982        -1.0237       1.0940
   23      -0.2503        0.3151      -0.5655        -1.2577       1.0074
   24      -0.2539        0.0330      -0.2869        -1.0037       0.7499
   33       1.8275       -0.9332       2.7607         1.2335       0.5941
   35       0.4970        2.0799      -1.5829        -0.3694       0.8664
   36      26.1830        0.1056      26.0774         0.4516      25.7313
   37       2.0622        1.0788       0.9835         0.2361       1.8261
   38       0.3544       -0.9395       1.2939         0.0411       0.3133
   40       0.0025       -1.7153       1.7178        -1.1769       1.1794
 Sum       30.4927       -0.1035      30.5962        -2.8692      33.3619

 Contributions to Isotropic shielding for atom   31 (    31.2813 ppm):
                         Standard Origin              Atomic Origin
 NLMO      Total    Paramagnetic  Diamagnetic   Paramagnetic  Diamagnetic
   18       0.0970       -0.2360       0.3331        -0.9925       1.0895
   33       1.6882       -0.9598       2.6480         0.9907       0.6975
   35       0.4577        2.0832      -1.6255        -0.3736       0.8313
   36       1.9903        1.0996       0.8907         0.2129       1.7774
   37      26.0451        0.1720      25.8731         0.4277      25.6174
   38       0.2748       -0.8681       1.1429         0.1263       0.1485
   39       0.0287       -1.4777       1.5064        -1.1019       1.1306
 Sum       30.5818       -0.1869      30.7687        -0.7104      31.2921

 Contributions to Isotropic shielding for atom   32 (    32.0066 ppm):
                         Standard Origin              Atomic Origin
 NLMO      Total    Paramagnetic  Diamagnetic   Paramagnetic  Diamagnetic
   31      -0.2481        0.4710      -0.7191        -1.1519       0.9038
   35       1.4137       -0.5283       1.9420         0.5356       0.8781
   37      -0.0965        0.7952      -0.8916        -1.2044       1.1079
   39      26.3960       -0.0511      26.4471         0.5546      25.8414
   40       1.8574        3.1860      -1.3287         0.0623       1.7951
   41      -0.1513        0.0317      -0.1830        -1.3035       1.1522
 Sum       29.1711        3.9045      25.2667        -2.5073      31.6785

 Contributions to Isotropic shielding for atom   33 (    31.6767 ppm):
                         Standard Origin              Atomic Origin
 NLMO      Total    Paramagnetic  Diamagnetic   Paramagnetic  Diamagnetic
   31      -0.1534        0.3291      -0.4824        -1.0585       0.9051
   35       1.2989       -0.1876       1.4865         0.3864       0.9125
   36      -0.2108        1.0023      -1.2132        -1.4146       1.2037
   38       0.8503        1.1038      -0.2535         0.0586       0.7918
   39       1.8527        3.0295      -1.1768         0.0691       1.7836
   40      26.3157       -0.2077      26.5234         0.5750      25.7408
   42      -0.0457        0.1304      -0.1761        -1.1930       1.1474
 Sum       29.9078        5.1999      24.7079        -2.5771      32.4849

 Contributions to Isotropic shielding for atom   34 (    32.4957 ppm):
                         Standard Origin              Atomic Origin
 NLMO      Total    Paramagnetic  Diamagnetic   Paramagnetic  Diamagnetic
   28      -0.3810        0.6758      -1.0567        -1.2009       0.8200
   32       1.7823       -1.7317       3.5140         1.2039       0.5784
   35       0.3386       -0.9557       1.2942        -0.0615       0.4000
   39      -0.0152       -0.7865       0.7713        -1.1527       1.1375
   41      26.7439        0.4943      26.2496         0.8163      25.9276
   42       1.6472        2.3200      -0.6729        -0.2150       1.8622
 Sum       30.1158        0.0162      30.0996        -0.6100      30.7257

 Contributions to Isotropic shielding for atom   35 (    31.4860 ppm):
                         Standard Origin              Atomic Origin
 NLMO      Total    Paramagnetic  Diamagnetic   Paramagnetic  Diamagnetic
   32       1.2456       -0.1542       1.3999         0.0846       1.1611
   35       0.2728       -0.7632       1.0360         0.1114       0.1614
   38       0.3184        1.8807      -1.5623        -0.5576       0.8760
   40       0.0235       -0.2330       0.2566        -1.1017       1.1252
   41       1.4392        1.6311      -0.1920        -0.2596       1.6988
   42      26.3175        0.1651      26.1525         0.7667      25.5508
 Sum       29.6170        2.5265      27.0906        -0.9562      30.5733

 Contributions to Isotropic shielding for atom   36 (    30.7861 ppm):
                         Standard Origin              Atomic Origin
 NLMO      Total    Paramagnetic  Diamagnetic   Paramagnetic  Diamagnetic
    2      -0.8638       -0.4142      -0.4496        -1.8157       0.9519
    4       1.7667       -0.1274       1.8940         0.8870       0.8797
    8       0.5968       -0.1770       0.7738        -0.4762       1.0730
   15      -0.2952        0.1166      -0.4118        -1.1782       0.8831
   18       0.1523        0.2267      -0.0744        -1.1349       1.2871
   43      25.6507        0.1940      25.4567         0.3516      25.2991
   44       1.7805        2.6861      -0.9056        -0.0809       1.8614
   45       2.2622        0.1981       2.0641         0.4714       1.7908
 Sum       31.0501        2.7028      28.3473        -2.9759      34.0260

 Contributions to Isotropic shielding for atom   37 (    31.0190 ppm):
                         Standard Origin              Atomic Origin
 NLMO      Total    Paramagnetic  Diamagnetic   Paramagnetic  Diamagnetic
    1      -0.9703        0.1140      -1.0843        -1.8835       0.9132
    2      -0.6726        0.0031      -0.6758        -2.2844       1.6117
    4       1.0238        0.8921       0.1316         0.2585       0.7653
    6      -0.0145       -1.4911       1.4767        -0.9516       0.9371
   18       0.0783        0.0811      -0.0028        -0.9366       1.0150
   43       2.1387        2.5776      -0.4389         0.1703       1.9684
   44      26.2693       -0.1223      26.3916         0.5196      25.7497
   45       2.0401        1.6356       0.4045         0.0583       1.9818
 Sum       29.8928        3.6902      26.2026        -5.0494      34.9422

 Contributions to Isotropic shielding for atom   38 (    31.2677 ppm):
                         Standard Origin              Atomic Origin
 NLMO      Total    Paramagnetic  Diamagnetic   Paramagnetic  Diamagnetic
    2      -0.6806       -0.6087      -0.0719        -1.5479       0.8672
    4       1.8802       -1.0440       2.9242         1.0126       0.8675
    8       0.5354       -0.2836       0.8190        -0.5630       1.0985
   15      -0.2395        0.1514      -0.3909        -1.1336       0.8941
   18       0.1068        0.0495       0.0573        -1.2268       1.3336
   43       2.1861        0.4097       1.7764         0.3552       1.8309
   44       1.8364        1.9782      -0.1418        -0.0603       1.8967
   45      25.7788        0.3162      25.4626         0.3375      25.4412
 Sum       31.4035        0.9687      30.4348        -2.8262      34.2297
 
 1\1\GINC-GNOSIE-MM\SP\RHF\STO-3G\C16H19N1O2\MBENIDD\30-Apr-2026\0\\# n
 mr=giao hf/sto-3g pop=nbo\\Title Card Required\\0,1\C,0,0.,0.,0.\C,0,1
 .4073,0.,0.\C,0,2.1245,1.1939,0.\C,0,1.4438,2.4055,-0.0102\C,0,0.048,2
 .4268,-0.0264\C,0,-0.6816,1.2365,0.0027\C,0,-2.154,1.3387,0.0734\O,0,-
 0.5058,3.6729,-0.0378\C,0,-1.8114,3.7506,-0.6064\C,0,-2.7917,2.702,-0.
 0777\C,0,-1.7667,3.7985,-2.14\C,0,-3.1537,4.0947,-2.7316\N,0,-4.2223,3
 .8115,-1.7758\C,0,-3.9923,2.5697,-1.0308\C,0,-5.3343,2.3858,-0.329\C,0
 ,-6.3582,2.9653,-1.3049\C,0,-5.5443,3.6774,-2.3814\O,0,-2.8491,0.3454,
 0.283\C,0,-0.7033,-1.3308,0.0125\H,0,-3.0997,3.0033,0.9322\H,0,-2.1842
 ,4.7314,-0.2783\H,0,-3.8492,1.7382,-1.7379\H,0,1.9569,-0.9401,0.0075\H
 ,0,3.2114,1.1785,0.0079\H,0,2.,3.3398,-0.0119\H,0,-1.0432,4.5512,-2.47
 56\H,0,-1.4008,2.8392,-2.5279\H,0,-3.2083,5.1534,-3.0105\H,0,-3.2658,3
 .5144,-3.6562\H,0,-5.3788,2.9429,0.6148\H,0,-5.5409,1.3342,-0.1062\H,0
 ,-6.9767,2.1752,-1.7439\H,0,-7.0229,3.6622,-0.7823\H,0,-5.5181,3.0581,
 -3.2868\H,0,-5.9767,4.6492,-2.6384\H,0,-1.2246,-1.4799,0.9631\H,0,0.00
 52,-2.1589,-0.1016\H,0,-1.4065,-1.4035,-0.8231\\Version=EM64L-G16RevB.
 01\State=1-A\HF=-811.0523378\RMSD=4.561e-09\Dipole=-0.0012598,-0.01958
 18,-0.5490326\Quadrupole=1.9630309,-2.6061865,0.6431557,-2.5634087,0.9
 64732,-0.0646011\PG=C01 [X(C16H19N1O2)]\\@


 I LOVE MANKIND - IT'S PEOPLE I CAN'T STAND.
     -- LINUS OF PEANUTS
 Job cpu time:       0 days  0 hours  3 minutes 35.1 seconds.
 Elapsed time:       0 days  0 hours  1 minutes 54.8 seconds.
 File lengths (MBytes):  RWF=     14 Int=      0 D2E=      0 Chk=      2 Scr=      1
 Normal termination of Gaussian 16 at Thu Apr 30 09:28:25 2026.
