 Entering Gaussian System, Link 0=g16
 Input=2_isoelaeocarpine_c_1.gjf
 Output=2_isoelaeocarpine_c_1.log
 Initial command:
 /opt/gaussian/g16/l1.exe "/home/mbenidd/Bureau/Elaeocarpines/HF_NMR/Isoelaeocarpine/2_isoelaeocarpine_c_1/Gau-12882.inp" -scrdir="/home/mbenidd/Bureau/Elaeocarpines/HF_NMR/Isoelaeocarpine/2_isoelaeocarpine_c_1/"
 Entering Link 1 = /opt/gaussian/g16/l1.exe PID=     12884.
  
 Copyright (c) 1988-2017, Gaussian, Inc.  All Rights Reserved.
  
 This is part of the Gaussian(R) 16 program.  It is based on
 the Gaussian(R) 09 system (copyright 2009, Gaussian, Inc.),
 the Gaussian(R) 03 system (copyright 2003, Gaussian, Inc.),
 the Gaussian(R) 98 system (copyright 1998, Gaussian, Inc.),
 the Gaussian(R) 94 system (copyright 1995, Gaussian, Inc.),
 the Gaussian 92(TM) system (copyright 1992, Gaussian, Inc.),
 the Gaussian 90(TM) system (copyright 1990, Gaussian, Inc.),
 the Gaussian 88(TM) system (copyright 1988, Gaussian, Inc.),
 the Gaussian 86(TM) system (copyright 1986, Carnegie Mellon
 University), and the Gaussian 82(TM) system (copyright 1983,
 Carnegie Mellon University). Gaussian is a federally registered
 trademark of Gaussian, Inc.
  
 This software contains proprietary and confidential information,
 including trade secrets, belonging to Gaussian, Inc.
  
 This software is provided under written license and may be
 used, copied, transmitted, or stored only in accord with that
 written license.
  
 The following legend is applicable only to US Government
 contracts under FAR:
  
                    RESTRICTED RIGHTS LEGEND
  
 Use, reproduction and disclosure by the US Government is
 subject to restrictions as set forth in subparagraphs (a)
 and (c) of the Commercial Computer Software - Restricted
 Rights clause in FAR 52.227-19.
  
 Gaussian, Inc.
 340 Quinnipiac St., Bldg. 40, Wallingford CT 06492
  
  
 ---------------------------------------------------------------
 Warning -- This program may not be used in any manner that
 competes with the business of Gaussian, Inc. or will provide
 assistance to any competitor of Gaussian, Inc.  The licensee
 of this program is prohibited from giving any competitor of
 Gaussian, Inc. access to this program.  By using this program,
 the user acknowledges that Gaussian, Inc. is engaged in the
 business of creating and licensing software in the field of
 computational chemistry and represents and warrants to the
 licensee that it is not a competitor of Gaussian, Inc. and that
 it will not use this program in any manner prohibited above.
 ---------------------------------------------------------------
  

 Cite this work as:
 Gaussian 16, Revision B.01,
 M. J. Frisch, G. W. Trucks, H. B. Schlegel, G. E. Scuseria, 
 M. A. Robb, J. R. Cheeseman, G. Scalmani, V. Barone, 
 G. A. Petersson, H. Nakatsuji, X. Li, M. Caricato, A. V. Marenich, 
 J. Bloino, B. G. Janesko, R. Gomperts, B. Mennucci, H. P. Hratchian, 
 J. V. Ortiz, A. F. Izmaylov, J. L. Sonnenberg, D. Williams-Young, 
 F. Ding, F. Lipparini, F. Egidi, J. Goings, B. Peng, A. Petrone, 
 T. Henderson, D. Ranasinghe, V. G. Zakrzewski, J. Gao, N. Rega, 
 G. Zheng, W. Liang, M. Hada, M. Ehara, K. Toyota, R. Fukuda, 
 J. Hasegawa, M. Ishida, T. Nakajima, Y. Honda, O. Kitao, H. Nakai, 
 T. Vreven, K. Throssell, J. A. Montgomery, Jr., J. E. Peralta, 
 F. Ogliaro, M. J. Bearpark, J. J. Heyd, E. N. Brothers, K. N. Kudin, 
 V. N. Staroverov, T. A. Keith, R. Kobayashi, J. Normand, 
 K. Raghavachari, A. P. Rendell, J. C. Burant, S. S. Iyengar, 
 J. Tomasi, M. Cossi, J. M. Millam, M. Klene, C. Adamo, R. Cammi, 
 J. W. Ochterski, R. L. Martin, K. Morokuma, O. Farkas, 
 J. B. Foresman, and D. J. Fox, Gaussian, Inc., Wallingford CT, 2016.
 
 ******************************************
 Gaussian 16:  EM64L-G16RevB.01 20-Dec-2017
                30-Apr-2026 
 ******************************************
 %nprocshared=4
 Will use up to    4 processors via shared memory.
 ----------------------------
 # nmr=giao hf/sto-3g pop=nbo
 ----------------------------
 1/38=1,172=1/1;
 2/12=2,17=6,18=5,40=1/2;
 3/6=3,11=9,25=1,30=1/1,2,3,8;
 4//1;
 5/5=2,38=5/2;
 8/6=1,10=90,11=11/1;
 10/13=100,45=16/2;
 6/7=2,8=2,9=2,10=2,28=1,40=1,64=1/1,7;
 99/9=1/99;
 -------------------
 Title Card Required
 -------------------
 Symbolic Z-matrix:
 Charge =  0 Multiplicity = 1
 C                     0.        0.        0. 
 C                     1.4075    0.        0. 
 C                     2.1271    1.1938    0. 
 C                     1.4506    2.408     0.0108 
 C                     0.056     2.4291    0.0303 
 C                    -0.6782    1.2365    0.0028 
 C                    -2.1542    1.3462   -0.0671 
 O                    -0.5063    3.6768    0.0383 
 C                    -1.8099    3.7005    0.6362 
 C                    -2.7606    2.7276   -0.0591 
 C                    -2.3239    5.1444    0.5288 
 C                    -2.6631    5.5274   -0.9179 
 N                    -3.6117    4.5578   -1.4489 
 C                    -3.0518    3.1988   -1.4798 
 C                    -4.1587    2.4594   -2.2187 
 C                    -4.6646    3.483    -3.2382 
 C                    -4.057     4.8196   -2.8131 
 O                    -2.8704    0.3524   -0.1684 
 C                    -0.7066   -1.3286   -0.0178 
 H                    -3.6875    2.6778    0.529 
 H                    -1.7016    3.4472    1.7001 
 H                    -2.1397    3.168    -2.0947 
 H                     1.9563   -0.9406   -0.0077 
 H                     3.2141    1.1752   -0.0078 
 H                     2.0086    3.3408    0.0124 
 H                    -3.2185    5.2577    1.1544 
 H                    -1.5665    5.8409    0.9076 
 H                    -3.1088    6.5288   -0.921 
 H                    -1.7503    5.5721   -1.525 
 H                    -4.9752    2.1763   -1.5428 
 H                    -3.7955    1.55     -2.708 
 H                    -5.7595    3.5179   -3.2254 
 H                    -4.3463    3.2193   -4.2525 
 H                    -4.7928    5.6285   -2.8567 
 H                    -3.2189    5.0737   -3.4739 
 H                    -1.3778   -1.4193    0.8419 
 H                     0.0034   -2.1607    0.0473 
 H                    -1.2641   -1.4539   -0.9512 
 
                          Input orientation:                          
 ---------------------------------------------------------------------
 Center     Atomic      Atomic             Coordinates (Angstroms)
 Number     Number       Type             X           Y           Z
 ---------------------------------------------------------------------
      1          6           0        0.000000    0.000000    0.000000
      2          6           0        1.407500    0.000000    0.000000
      3          6           0        2.127100    1.193800    0.000000
      4          6           0        1.450600    2.408000    0.010800
      5          6           0        0.056000    2.429100    0.030300
      6          6           0       -0.678200    1.236500    0.002800
      7          6           0       -2.154200    1.346200   -0.067100
      8          8           0       -0.506300    3.676800    0.038300
      9          6           0       -1.809900    3.700500    0.636200
     10          6           0       -2.760600    2.727600   -0.059100
     11          6           0       -2.323900    5.144400    0.528800
     12          6           0       -2.663100    5.527400   -0.917900
     13          7           0       -3.611700    4.557800   -1.448900
     14          6           0       -3.051800    3.198800   -1.479800
     15          6           0       -4.158700    2.459400   -2.218700
     16          6           0       -4.664600    3.483000   -3.238200
     17          6           0       -4.057000    4.819600   -2.813100
     18          8           0       -2.870400    0.352400   -0.168400
     19          6           0       -0.706600   -1.328600   -0.017800
     20          1           0       -3.687500    2.677800    0.529000
     21          1           0       -1.701600    3.447200    1.700100
     22          1           0       -2.139700    3.168000   -2.094700
     23          1           0        1.956300   -0.940600   -0.007700
     24          1           0        3.214100    1.175200   -0.007800
     25          1           0        2.008600    3.340800    0.012400
     26          1           0       -3.218500    5.257700    1.154400
     27          1           0       -1.566500    5.840900    0.907600
     28          1           0       -3.108800    6.528800   -0.921000
     29          1           0       -1.750300    5.572100   -1.525000
     30          1           0       -4.975200    2.176300   -1.542800
     31          1           0       -3.795500    1.550000   -2.708000
     32          1           0       -5.759500    3.517900   -3.225400
     33          1           0       -4.346300    3.219300   -4.252500
     34          1           0       -4.792800    5.628500   -2.856700
     35          1           0       -3.218900    5.073700   -3.473900
     36          1           0       -1.377800   -1.419300    0.841900
     37          1           0        0.003400   -2.160700    0.047300
     38          1           0       -1.264100   -1.453900   -0.951200
 ---------------------------------------------------------------------
                    Distance matrix (angstroms):
                    1          2          3          4          5
     1  C    0.000000
     2  C    1.407500   0.000000
     3  C    2.439203   1.393909   0.000000
     4  C    2.811196   2.408410   1.389982   0.000000
     5  C    2.429934   2.779928   2.411709   1.394896   0.000000
     6  C    1.410282   2.424682   2.805626   2.429869   1.400750
     7  C    2.541129   3.808210   4.284537   3.758733   2.463157
     8  O    3.711693   4.145233   3.619607   2.332395   1.368576
     9  C    4.168236   4.944706   4.710442   3.562659   2.337767
    10  C    3.881264   4.981601   5.123051   4.223889   2.833784
    11  C    5.669655   6.377133   5.974803   4.690742   3.644898
    12  C    6.203772   6.925639   6.524465   5.245538   4.229900
    13  N    5.993098   6.932909   6.808056   5.690276   4.491260
    14  C    4.662147   5.683967   5.747246   4.808207   3.539952
    15  C    5.316584   6.477180   6.784958   6.036353   4.777302
    16  C    6.661510   7.712822   7.864704   7.007660   5.837625
    17  C    6.899371   7.810431   7.700847   6.642581   5.542218
    18  O    2.896850   4.295692   5.070633   4.788386   3.593881
    19  C    1.504918   2.496981   3.793768   4.314685   3.834603
    20  H    4.587822   5.780093   6.024257   5.171208   3.784752
    21  H    4.203447   4.943686   4.756795   3.724250   2.629433
    22  H    4.359164   5.196789   5.146923   4.230955   3.143676
    23  H    2.170691   1.089022   2.141237   3.386620   3.868780
    24  H    3.422221   2.155217   1.087187   2.151761   3.398134
    25  H    3.898150   3.394469   2.150303   1.086960   2.155032
    26  H    6.271745   7.097600   6.813469   5.588301   4.470674
    27  H    6.115045   6.616988   6.005161   4.657461   3.878471
    28  H    7.289589   7.991898   7.531608   6.215897   5.265783
    29  H    6.036346   6.583739   6.043953   4.755625   3.944633
    30  H    5.645275   6.917758   7.334044   6.615003   5.277454
    31  H    4.913409   6.066875   6.522065   5.970729   4.806782
    32  H    7.480018   8.610733   8.831937   7.980627   6.753155
    33  H    6.880260   7.845627   8.005705   7.241408   6.192498
    34  H    7.925382   8.847851   8.701282   7.587768   6.487048
    35  H    6.940586   7.695063   7.463332   6.407287   5.477070
    36  H    2.149777   3.237453   4.452124   4.831025   4.186246
    37  H    2.161220   2.577277   3.970518   4.792571   4.590133
    38  H    2.148617   3.186856   4.406283   4.817604   4.217072
                    6          7          8          9         10
     6  C    0.000000
     7  C    1.481721   0.000000
     8  O    2.446605   2.856288   0.000000
     9  C    2.784463   2.481109   1.434371   0.000000
    10  C    2.561952   1.508659   2.447925   1.527680   0.000000
    11  C    4.272784   3.848405   2.387071   1.536417   2.525323
    12  C    4.816569   4.297124   2.998470   2.545730   2.930175
    13  N    4.663034   3.787882   3.554073   2.886016   2.450622
    14  C    3.417997   2.496705   3.002113   2.504291   1.524866
    15  C    4.306324   3.144299   4.462750   3.899698   2.586598
    16  C    5.607337   4.574265   5.297591   4.817426   3.781868
    17  C    5.673111   4.819302   4.695098   4.266089   3.693458
    18  O    2.369954   1.229163   4.084523   3.603029   2.380247
    19  C    2.565340   3.041797   5.009720   5.190071   4.546799
    20  H    3.377887   2.116484   3.370285   2.140745   1.098856
    21  H    2.969069   2.782453   2.059863   1.098987   2.175796
    22  H    3.204088   2.725863   2.734330   2.801810   2.173278
    23  H    3.417670   4.704168   5.233249   6.011545   5.975574
    24  H    3.892797   5.371350   4.483470   5.659722   6.173299
    25  H    3.412780   4.616671   2.537378   3.885801   4.808991
    26  H    4.893808   4.233749   3.331809   2.162766   2.843178
    27  H    4.775797   4.636568   2.561842   2.171224   3.471746
    28  H    5.896581   5.338516   3.978337   3.480128   3.913213
    29  H    4.720275   4.488523   2.753835   2.859585   3.355704
    30  H    4.662222   3.290106   4.972167   4.134048   2.722086
    31  H    4.142979   3.116048   4.783752   4.444202   3.078056
    32  H    6.437831   5.262065   6.186525   5.526720   4.432091
    33  H    5.957687   5.082458   5.776320   5.528496   4.510079
    34  H    6.663058   5.751710   5.528493   4.981488   4.513493
    35  H    5.767729   5.160826   4.652427   4.556740   4.168343
    36  H    2.871725   3.012817   5.232162   5.142118   4.463263
    37  H    3.465188   4.119062   5.859717   6.163483   5.616627
    38  H    2.914043   3.068301   5.279910   5.420846   4.529933
                   11         12         13         14         15
    11  C    0.000000
    12  C    1.534499   0.000000
    13  N    2.431836   1.456684   0.000000
    14  C    2.889580   2.426767   1.470144   0.000000
    15  C    4.257285   3.652605   2.301105   1.522469   0.000000
    16  C    4.735970   3.683662   2.337817   2.402887   1.530710
    17  C    3.778548   2.456770   1.458723   2.327039   2.436021
    18  O    4.873193   5.233101   4.458093   3.139215   3.209812
    19  C    6.694338   7.186293   6.718434   5.304221   5.577625
    20  H    2.818425   3.356059   2.729878   2.170445   2.796352
    21  H    2.153994   3.479316   3.846832   3.463597   4.729702
    22  H    3.289808   2.688043   2.124944   1.100444   2.143327
    23  H    7.458899   8.000147   7.956889   6.662040   7.337694
    24  H    6.834613   7.369627   7.753083   6.747092   7.803552
    25  H    4.721250   5.241322   5.933318   5.277734   6.617421
    26  H    1.097507   2.162322   2.724268   3.347517   4.482439
    27  H    1.096475   2.152502   3.373764   3.858301   5.284675
    28  H    2.152801   1.096111   2.101530   3.377041   4.398447
    29  H    2.174865   1.097166   2.121180   2.707120   3.996312
    30  H    4.486707   4.119002   2.745813   2.179207   1.097114
    31  H    5.055907   4.506273   3.265881   2.186345   1.094686
    32  H    5.342553   4.353199   2.974960   3.237373   2.167124
    33  H    5.536871   4.390905   3.192396   3.060068   2.179216
    34  H    4.217989   2.881803   2.126804   3.290954   3.294286
    35  H    4.102150   2.654787   2.126281   2.742190   3.048494
    36  H    6.638923   7.280490   6.779661   5.433177   5.669655
    37  H    7.681969   8.194432   7.774690   6.355354   6.618395
    38  H    6.844789   7.120173   6.472980   5.012276   5.029829
                   16         17         18         19         20
    16  C    0.000000
    17  C    1.528525   0.000000
    18  O    4.737455   5.325254   0.000000
    19  C    7.013432   7.539181   2.744171   0.000000
    20  H    3.974276   3.986661   2.561543   5.023544   0.000000
    21  H    5.759120   5.272605   3.799365   5.171989   2.430484
    22  H    2.789612   2.630574   3.488862   5.156229   3.085414
    23  H    8.593060   8.786919   4.999471   2.691037   6.725574
    24  H    8.822434   8.603502   6.141981   4.651989   7.083646
    25  H    7.424165   6.852868   5.724322   5.401529   5.757777
    26  H    4.953352   4.078734   5.092440   7.145841   2.695732
    27  H    5.687317   4.592304   5.742958   7.279940   3.827164
    28  H    4.131202   2.720384   6.226649   8.265898   4.155430
    29  H    3.973983   2.747057   5.508199   7.140072   4.043344
    30  H    2.162942   3.073075   3.105764   5.729825   2.490387
    31  H    2.184705   3.281724   2.956285   5.006478   3.429543
    32  H    1.095531   2.182412   5.264270   7.701237   4.369722
    33  H    1.095289   2.171757   5.203582   7.201631   4.856952
    34  H    2.182922   1.094359   6.225738   8.553223   4.625071
    35  H    2.162390   1.097103   5.773946   7.697124   4.688617
    36  H    7.175153   7.711097   2.527347   1.094450   4.713687
    37  H    8.027209   8.566990   3.823732   1.095778   6.104577
    38  H    6.416132   7.115038   2.540806   1.094414   5.013462
                   21         22         23         24         25
    21  H    0.000000
    22  H    3.830195   0.000000
    23  H    5.962349   6.165499   0.000000
    24  H    5.678293   6.081906   2.461437   0.000000
    25  H    4.077406   4.655977   4.281767   2.478601   0.000000
    26  H    2.424187   4.010898   8.157693   7.706871   5.683418
    27  H    2.525096   4.060389   7.696534   6.742466   4.453451
    28  H    4.283297   3.689404   9.070904   8.335108   6.101013
    29  H    3.862492   2.501177   7.645675   6.802933   4.633749
    30  H    4.779963   3.054198   7.753534   8.391845   7.249012
    31  H    5.235946   2.394939   6.824801   7.521040   6.655458
    32  H    6.382171   3.808394   9.474460   9.816654   8.417725
    33  H    6.517655   3.086716   8.662901   8.908169   7.654338
    34  H    5.922669   3.697789   9.839727   9.594715   7.728153
    35  H    5.631872   2.588157   8.658466   8.282249   6.517974
    36  H    4.952189   5.499767   3.473787   5.342187   5.900367
    37  H    6.089936   6.129934   2.303364   4.630320   5.855642
    38  H    5.589417   4.841098   3.394797   5.277921   5.884576
                   26         27         28         29         30
    26  H    0.000000
    27  H    1.769219   0.000000
    28  H    2.436189   2.489111   0.000000
    29  H    3.071424   2.454298   1.767940   0.000000
    30  H    4.455997   5.572521   4.776436   4.683135   0.000000
    31  H    5.384989   6.037618   5.334171   4.664721   1.772466
    32  H    5.354086   6.329239   4.626228   4.815058   2.290450
    33  H    5.887408   6.420803   4.856242   4.440061   2.970831
    34  H    4.324909   4.962266   2.719068   3.321658   3.698282
    35  H    4.631956   4.745162   2.940533   2.490663   3.899829
    36  H    6.933121   7.262949   8.323249   7.390578   5.617510
    37  H    8.163269   8.199409   9.280668   8.083550   6.791498
    38  H    7.300603   7.533969   8.193127   7.066138   5.224998
                   31         32         33         34         35
    31  H    0.000000
    32  H    2.828008   0.000000
    33  H    2.339962   1.772352   0.000000
    34  H    4.201295   2.350549   2.819905   0.000000
    35  H    3.651785   2.989467   2.305656   1.779298   0.000000
    36  H    5.221475   7.753591   7.502101   8.661025   8.010919
    37  H    5.982693   8.727433   8.145709   9.597311   8.667099
    38  H    4.303225   7.078093   6.499026   8.138983   7.266004
                   36         37         38
    36  H    0.000000
    37  H    1.757492   0.000000
    38  H    1.797034   1.761569   0.000000
 Stoichiometry    C16H19NO2
 Framework group  C1[X(C16H19NO2)]
 Deg. of freedom   108
 Full point group                 C1      NOp   1
 Largest Abelian subgroup         C1      NOp   1
 Largest concise Abelian subgroup C1      NOp   1
                         Standard orientation:                         
 ---------------------------------------------------------------------
 Center     Atomic      Atomic             Coordinates (Angstroms)
 Number     Number       Type             X           Y           Z
 ---------------------------------------------------------------------
      1          6           0       -2.996648    0.796664   -0.062450
      2          6           0       -3.992953    0.018614   -0.681377
      3          6           0       -3.746203   -1.301160   -1.055937
      4          6           0       -2.501673   -1.868320   -0.807891
      5          6           0       -1.507233   -1.119799   -0.178177
      6          6           0       -1.734290    0.215725    0.178083
      7          6           0       -0.598158    0.968796    0.759104
      8          8           0       -0.321447   -1.775084    0.015509
      9          6           0        0.429361   -1.259904    1.123794
     10          6           0        0.703526    0.234632    0.965672
     11          6           0        1.741311   -2.057298    1.183196
     12          6           0        2.676376   -1.712795    0.016295
     13          7           0        2.899769   -0.273392    0.004434
     14          6           0        1.652348    0.476345   -0.203314
     15          6           0        2.198607    1.890538   -0.343220
     16          6           0        3.523826    1.698741   -1.084893
     17          6           0        3.807375    0.197545   -1.035923
     18          8           0       -0.688964    2.163933    1.031584
     19          6           0       -3.332413    2.218930    0.296994
     20          1           0        1.144198    0.601408    1.903099
     21          1           0       -0.140411   -1.457127    2.042617
     22          1           0        1.179483    0.188386   -1.154343
     23          1           0       -4.974768    0.444090   -0.883810
     24          1           0       -4.524982   -1.885235   -1.540018
     25          1           0       -2.306345   -2.897690   -1.097247
     26          1           0        2.250696   -1.846078    2.132109
     27          1           0        1.527878   -3.132454    1.155938
     28          1           0        3.627097   -2.238841    0.160746
     29          1           0        2.248397   -2.061892   -0.931722
     30          1           0        2.385910    2.348986    0.635760
     31          1           0        1.518526    2.545248   -0.897460
     32          1           0        4.316958    2.273029   -0.593647
     33          1           0        3.448664    2.043905   -2.121652
     34          1           0        4.854184   -0.006791   -0.790853
     35          1           0        3.581693   -0.255173   -2.009447
     36          1           0       -3.183574    2.390939    1.367545
     37          1           0       -4.382377    2.448715    0.083680
     38          1           0       -2.725275    2.916018   -0.288832
 ---------------------------------------------------------------------
 Rotational constants (GHZ):           0.7162017           0.2864625           0.2345802
 Standard basis: STO-3G (5D, 7F)
 There are   114 symmetry adapted cartesian basis functions of A   symmetry.
 There are   114 symmetry adapted basis functions of A   symmetry.
   114 basis functions,   342 primitive gaussians,   114 cartesian basis functions
    69 alpha electrons       69 beta electrons
       nuclear repulsion energy      1500.3703950144 Hartrees.
 NAtoms=   38 NActive=   38 NUniq=   38 SFac= 1.00D+00 NAtFMM=   60 NAOKFM=F Big=F
 Integral buffers will be    131072 words long.
 Raffenetti 1 integral format.
 Two-electron integral symmetry is turned on.
 One-electron integrals computed using PRISM.
 NBasis=   114 RedAO= T EigKep=  1.74D-01  NBF=   114
 NBsUse=   114 1.00D-06 EigRej= -1.00D+00 NBFU=   114
 ExpMin= 1.69D-01 ExpMax= 1.31D+02 ExpMxC= 1.31D+02 IAcc=3 IRadAn=         5 AccDes= 0.00D+00
 Harris functional with IExCor=  205 and IRadAn=       5 diagonalized for initial guess.
 HarFok:  IExCor=  205 AccDes= 0.00D+00 IRadAn=         5 IDoV= 1 UseB2=F ITyADJ=14
 ICtDFT=  3500011 ScaDFX=  1.000000  1.000000  1.000000  1.000000
 FoFCou: FMM=F IPFlag=           0 FMFlag=      100000 FMFlg1=           0
         NFxFlg=           0 DoJE=T BraDBF=F KetDBF=T FulRan=T
         wScrn=  0.000000 ICntrl=       500 IOpCl=  0 I1Cent=   200000004 NGrid=           0
         NMat0=    1 NMatS0=      1 NMatT0=    0 NMatD0=    1 NMtDS0=    0 NMtDT0=    0
 Petite list used in FoFCou.
 Requested convergence on RMS density matrix=1.00D-08 within 128 cycles.
 Requested convergence on MAX density matrix=1.00D-06.
 Requested convergence on             energy=1.00D-06.
 No special actions if energy rises.
 Integral accuracy reduced to 1.0D-05 until final iterations.
 Initial convergence to 1.0D-05 achieved.  Increase integral accuracy.
 SCF Done:  E(RHF) =  -811.064368068     A.U. after   15 cycles
            NFock= 15  Conv=0.54D-08     -V/T= 2.0093
 Range of M.O.s used for correlation:     1   114
 NBasis=   114 NAE=    69 NBE=    69 NFC=     0 NFV=     0
 NROrb=    114 NOA=    69 NOB=    69 NVA=    45 NVB=    45
          Differentiating once with respect to magnetic field using GIAOs.
          Electric field/nuclear overlap derivatives assumed to be zero.
 FoFCou: FMM=F IPFlag=           0 FMFlag=      100000 FMFlg1=           0
         NFxFlg=           0 DoJE=F BraDBF=F KetDBF=T FulRan=T
         wScrn=  0.000000 ICntrl=      6100 IOpCl=  0 I1Cent=           7 NGrid=          38
         NMat0=    1 NMatS0=      1 NMatT0=    0 NMatD0=    1 NMtDS0=    0 NMtDT0=    0
 Symmetry not used in FoFCou.
 FoFJK:  IHMeth= 1 ICntrl=    6127 DoSepK=F KAlg= 0 I1Cent=           0 FoldK=F
 IRaf=         1 NMat=       1 IRICut=       1 DoRegI=T DoRafI=F ISym2E= 0 IDoP0=0 IntGTp=1.
          There are     3 degrees of freedom in the 1st order CPHF.  IDoFFX=0 NUNeed=     3.
      3 vectors produced by pass  0 Test12= 1.04D-13 3.33D-08 XBig12= 2.43D+01 1.40D+00.
 AX will form     3 AO Fock derivatives at one time.
      3 vectors produced by pass  1 Test12= 1.04D-13 3.33D-08 XBig12= 1.46D-01 2.08D-01.
      3 vectors produced by pass  2 Test12= 1.04D-13 3.33D-08 XBig12= 3.80D-03 2.42D-02.
      3 vectors produced by pass  3 Test12= 1.04D-13 3.33D-08 XBig12= 1.24D-04 2.88D-03.
      3 vectors produced by pass  4 Test12= 1.04D-13 3.33D-08 XBig12= 1.50D-06 1.75D-04.
      3 vectors produced by pass  5 Test12= 1.04D-13 3.33D-08 XBig12= 1.79D-08 2.16D-05.
      3 vectors produced by pass  6 Test12= 1.04D-13 3.33D-08 XBig12= 3.49D-10 2.51D-06.
      3 vectors produced by pass  7 Test12= 1.04D-13 3.33D-08 XBig12= 5.05D-12 2.52D-07.
      1 vectors produced by pass  8 Test12= 1.04D-13 3.33D-08 XBig12= 8.38D-14 4.27D-08.
 InvSVY:  IOpt=1 It=  1 EMax= 8.88D-16
 Solved reduced A of dimension    25 with     3 vectors.
 Calculating GIAO nuclear magnetic shielding tensors.
 SCF GIAO Magnetic shielding tensor (ppm):
      1  C    Isotropic =   113.7162   Anisotropy =   169.8794
   XX=    89.3035   YX=    28.7146   ZX=   -38.4488
   XY=    33.8629   YY=    53.0835   ZY=   -47.1372
   XZ=   -36.7146   YZ=   -45.2009   ZZ=   198.7617
   Eigenvalues:    31.4811    82.6984   226.9692
      2  C    Isotropic =   123.6847   Anisotropy =   143.1906
   XX=    61.7787   YX=    41.4389   ZX=   -41.8878
   XY=    38.1527   YY=   112.4258   ZY=   -23.3366
   XZ=   -44.3259   YZ=   -18.5376   ZZ=   196.8495
   Eigenvalues:    34.7010   117.2079   219.1451
      3  C    Isotropic =   117.3826   Anisotropy =   168.4295
   XX=    74.7357   YX=   -18.6213   ZX=   -61.7021
   XY=   -19.9145   YY=    89.9104   ZY=   -56.2478
   XZ=   -63.5022   YZ=   -55.6064   ZZ=   187.5015
   Eigenvalues:    19.9232   102.5556   229.6689
      4  C    Isotropic =   131.2994   Anisotropy =   145.9012
   XX=   128.1876   YX=    21.2377   ZX=   -30.0499
   XY=    20.5797   YY=    65.1028   ZY=   -50.5019
   XZ=   -32.3315   YZ=   -44.3276   ZZ=   200.6078
   Eigenvalues:    48.6049   116.7265   228.5669
      5  C    Isotropic =   105.0936   Anisotropy =   133.1518
   XX=    67.4922   YX=    27.8743   ZX=   -39.2637
   XY=    17.0356   YY=    77.3099   ZY=   -32.8447
   XZ=   -37.0059   YZ=   -26.7227   ZZ=   170.4787
   Eigenvalues:    47.8153    73.6040   193.8614
      6  C    Isotropic =   131.0351   Anisotropy =   151.5134
   XX=    92.4466   YX=    -3.1444   ZX=   -48.1568
   XY=    -5.7727   YY=    98.1334   ZY=   -43.6648
   XZ=   -42.3383   YZ=   -48.3731   ZZ=   202.5252
   Eigenvalues:    61.1895    99.8717   232.0440
      7  C    Isotropic =    90.1665   Anisotropy =   141.6847
   XX=   -23.0493   YX=     2.0027   ZX=   -68.9918
   XY=     1.5526   YY=   137.3780   ZY=   -12.5429
   XZ=   -72.6927   YZ=   -14.6996   ZZ=   156.1710
   Eigenvalues:   -47.7120   133.5886   184.6230
      8  O    Isotropic =   343.2484   Anisotropy =    91.8212
   XX=   328.7288   YX=   -29.6382   ZX=   -60.3103
   XY=   -39.2052   YY=   329.6106   ZY=   -50.4292
   XZ=   -38.4439   YZ=    -8.7573   ZZ=   371.4059
   Eigenvalues:   264.8589   360.4238   404.4625
      9  C    Isotropic =   186.5995   Anisotropy =    44.7918
   XX=   188.8450   YX=     3.3536   ZX=    21.8249
   XY=     7.7834   YY=   175.7870   ZY=     8.9280
   XZ=    21.0007   YZ=     9.6786   ZZ=   195.1665
   Eigenvalues:   169.4388   173.8990   216.4607
     10  C    Isotropic =   209.0747   Anisotropy =    11.4965
   XX=   212.5034   YX=    -0.3854   ZX=    -4.6140
   XY=     0.7844   YY=   201.5040   ZY=    -3.6499
   XZ=    -2.2693   YZ=    -2.6751   ZZ=   213.2167
   Eigenvalues:   200.6662   209.8189   216.7391
     11  C    Isotropic =   217.1313   Anisotropy =    11.0700
   XX=   223.1514   YX=    -2.5391   ZX=    -1.2618
   XY=    -4.6085   YY=   214.7802   ZY=    -4.1856
   XZ=    -2.3702   YZ=    -1.9368   ZZ=   213.4623
   Eigenvalues:   209.9473   216.9352   224.5113
     12  C    Isotropic =   202.0639   Anisotropy =    39.5848
   XX=   187.6426   YX=     6.5625   ZX=    -2.8239
   XY=     7.5109   YY=   225.8823   ZY=    -6.5892
   XZ=    -2.6589   YZ=    -6.3728   ZZ=   192.6668
   Eigenvalues:   185.9510   191.7870   228.4537
     13  N    Isotropic =   292.7659   Anisotropy =    47.8261
   XX=   311.2267   YX=   -17.2164   ZX=   -25.1348
   XY=    -9.9544   YY=   307.1711   ZY=   -14.0639
   XZ=   -28.6249   YZ=   -27.5799   ZZ=   259.8999
   Eigenvalues:   239.5085   314.1392   324.6499
     14  C    Isotropic =   194.5333   Anisotropy =    40.4496
   XX=   210.5423   YX=   -15.1241   ZX=    -9.7021
   XY=   -13.8654   YY=   200.9328   ZY=    -3.6219
   XZ=    -3.4909   YZ=     2.0747   ZZ=   172.1248
   Eigenvalues:   170.6332   191.4669   221.4997
     15  C    Isotropic =   213.5689   Anisotropy =    27.3599
   XX=   216.5124   YX=     7.2311   ZX=   -12.3653
   XY=     5.9431   YY=   224.5107   ZY=    -4.0534
   XZ=   -16.6996   YZ=    -1.5113   ZZ=   199.6837
   Eigenvalues:   191.2810   217.6169   231.8088
     16  C    Isotropic =   216.1507   Anisotropy =    20.4955
   XX=   221.0671   YX=    -3.7480   ZX=   -13.8254
   XY=    -4.2053   YY=   226.7578   ZY=    -4.2280
   XZ=   -15.0765   YZ=    -3.7595   ZZ=   200.6272
   Eigenvalues:   192.3071   226.3307   229.8144
     17  C    Isotropic =   198.9120   Anisotropy =    49.1886
   XX=   200.2668   YX=    10.2427   ZX=   -20.6336
   XY=    12.3323   YY=   201.0225   ZY=   -13.9401
   XZ=   -27.8532   YZ=   -11.9022   ZZ=   195.4467
   Eigenvalues:   173.3099   191.7217   231.7044
     18  O    Isotropic =  -361.6156   Anisotropy =  1284.7887
   XX=  -314.2566   YX=   104.1389   ZX=  -236.3602
   XY=   114.0488   YY= -1075.4078   ZY=  -360.4147
   XZ=  -248.6032   YZ=  -429.0065   ZZ=   304.8176
   Eigenvalues: -1182.5688  -397.1883   494.9102
     19  C    Isotropic =   218.0295   Anisotropy =    23.5801
   XX=   215.3901   YX=    -4.2988   ZX=     1.5661
   XY=    -4.5210   YY=   230.8126   ZY=     7.4726
   XZ=     0.6831   YZ=     6.9865   ZZ=   207.8856
   Eigenvalues:   205.2425   215.0964   233.7495
     20  H    Isotropic =    30.5353   Anisotropy =    11.5928
   XX=    26.8159   YX=     1.2557   ZX=     0.3088
   XY=     1.1081   YY=    29.3316   ZY=     4.1758
   XZ=     3.2119   YZ=     4.9119   ZZ=    35.4585
   Eigenvalues:    26.3471    26.9950    38.2639
     21  H    Isotropic =    31.1890   Anisotropy =    11.2097
   XX=    30.2552   YX=     1.2750   ZX=    -4.5401
   XY=     0.0662   YY=    27.3092   ZY=    -2.3165
   XZ=    -2.2305   YZ=    -4.7982   ZZ=    36.0025
   Eigenvalues:    25.9604    28.9444    38.6621
     22  H    Isotropic =    32.5876   Anisotropy =     6.4357
   XX=    34.7956   YX=     2.2883   ZX=     3.2059
   XY=     4.0317   YY=    29.0663   ZY=    -1.2999
   XZ=     0.2093   YZ=     0.4797   ZZ=    33.9008
   Eigenvalues:    27.4821    33.4026    36.8781
     23  H    Isotropic =    25.8927   Anisotropy =     5.9113
   XX=    27.1308   YX=     0.6051   ZX=     2.1724
   XY=     0.6844   YY=    27.9276   ZY=     2.5860
   XZ=     2.0367   YZ=     2.6608   ZZ=    22.6196
   Eigenvalues:    21.0460    26.7985    29.8336
     24  H    Isotropic =    25.3082   Anisotropy =     3.7350
   XX=    26.9400   YX=    -0.8385   ZX=     1.5513
   XY=    -1.1671   YY=    26.5749   ZY=     1.3075
   XZ=     1.4902   YZ=     1.5025   ZZ=    22.4095
   Eigenvalues:    21.4218    26.7046    27.7981
     25  H    Isotropic =    25.7286   Anisotropy =     7.2900
   XX=    28.4602   YX=     1.0072   ZX=     3.1587
   XY=     0.7323   YY=    26.6179   ZY=     2.3415
   XZ=     2.9569   YZ=     2.8479   ZZ=    22.1077
   Eigenvalues:    20.1671    26.4301    30.5886
     26  H    Isotropic =    31.6737   Anisotropy =    13.9321
   XX=    30.1310   YX=    -1.2604   ZX=     4.7535
   XY=    -0.9458   YY=    27.0049   ZY=    -2.0996
   XZ=     5.6815   YZ=    -2.4222   ZZ=    37.8852
   Eigenvalues:    26.5506    27.5087    40.9617
     27  H    Isotropic =    31.4685   Anisotropy =    14.9372
   XX=    28.1346   YX=     0.7071   ZX=    -0.6134
   XY=     0.4964   YY=    40.8644   ZY=    -3.0818
   XZ=     0.0706   YZ=    -2.7475   ZZ=    25.4064
   Eigenvalues:    24.8673    28.1115    41.4266
     28  H    Isotropic =    31.5054   Anisotropy =    14.2747
   XX=    35.8734   YX=    -6.0852   ZX=    -1.0840
   XY=    -6.5681   YY=    33.1887   ZY=    -2.4087
   XZ=    -0.8395   YZ=    -1.8545   ZZ=    25.4540
   Eigenvalues:    24.1319    29.3623    41.0218
     29  H    Isotropic =    32.0716   Anisotropy =     9.4663
   XX=    29.8154   YX=     0.9228   ZX=     0.0551
   XY=     1.7424   YY=    32.3587   ZY=     5.0068
   XZ=    -1.1001   YZ=     5.1694   ZZ=    34.0408
   Eigenvalues:    27.3060    30.5264    38.3825
     30  H    Isotropic =    31.5636   Anisotropy =    12.3440
   XX=    28.2754   YX=     1.8132   ZX=    -0.5248
   XY=     2.7473   YY=    33.6314   ZY=     6.8769
   XZ=    -1.7273   YZ=     6.1217   ZZ=    32.7842
   Eigenvalues:    24.9578    29.9401    39.7930
     31  H    Isotropic =    32.6363   Anisotropy =    13.0289
   XX=    33.6631   YX=    -5.0492   ZX=     1.9320
   XY=    -3.8143   YY=    36.2274   ZY=    -4.8559
   XZ=    -0.3974   YZ=    -5.8270   ZZ=    28.0183
   Eigenvalues:    25.1606    31.4260    41.3222
     32  H    Isotropic =    31.7725   Anisotropy =    15.4510
   XX=    36.0693   YX=     6.7272   ZX=     1.8440
   XY=     7.0563   YY=    33.1103   ZY=     2.6657
   XZ=     1.0972   YZ=     2.0539   ZZ=    26.1380
   Eigenvalues:    25.3378    27.9065    42.0732
     33  H    Isotropic =    32.2345   Anisotropy =    14.7582
   XX=    27.8545   YX=     0.4324   ZX=    -2.6100
   XY=     0.7861   YY=    31.1237   ZY=    -6.0876
   XZ=    -3.2398   YZ=    -6.4560   ZZ=    37.7253
   Eigenvalues:    26.3437    28.2865    42.0733
     34  H    Isotropic =    31.5201   Anisotropy =    14.4765
   XX=    40.8639   YX=    -2.1657   ZX=    -0.1325
   XY=    -1.5126   YY=    28.5825   ZY=    -0.8883
   XZ=    -1.7249   YZ=    -1.0938   ZZ=    25.1138
   Eigenvalues:    24.7301    28.6591    41.1711
     35  H    Isotropic =    32.3731   Anisotropy =    11.2045
   XX=    28.3269   YX=     0.1297   ZX=    -3.2972
   XY=     0.2657   YY=    31.2988   ZY=     2.9141
   XZ=    -3.7081   YZ=     3.8283   ZZ=    37.4938
   Eigenvalues:    26.7149    30.5618    39.8428
     36  H    Isotropic =    31.0085   Anisotropy =    10.7167
   XX=    28.8837   YX=    -1.9801   ZX=     1.7425
   XY=    -0.8412   YY=    29.2376   ZY=     3.8753
   XZ=     0.2737   YZ=     6.8838   ZZ=    34.9043
   Eigenvalues:    25.1830    29.6895    38.1530
     37  H    Isotropic =    30.9892   Anisotropy =    12.2162
   XX=    37.3986   YX=    -3.2765   ZX=     2.7705
   XY=    -3.7900   YY=    30.5092   ZY=     1.1867
   XZ=     2.3756   YZ=     1.6406   ZZ=    25.0599
   Eigenvalues:    23.8202    30.0141    39.1334
     38  H    Isotropic =    30.9322   Anisotropy =    10.8128
   XX=    30.8709   YX=     3.5593   ZX=    -1.7241
   XY=     2.0351   YY=    35.7017   ZY=    -2.0894
   XZ=    -0.5483   YZ=    -5.0355   ZZ=    26.2238
   Eigenvalues:    25.0269    29.6288    38.1407
 End of Minotr F.D. properties file   721 does not exist.
 End of Minotr F.D. properties file   722 does not exist.
 End of Minotr F.D. properties file   788 does not exist.

 **********************************************************************

            Population analysis using the SCF Density.

 **********************************************************************

 Orbital symmetries:
       Occupied  (A) (A) (A) (A) (A) (A) (A) (A) (A) (A) (A) (A)
                 (A) (A) (A) (A) (A) (A) (A) (A) (A) (A) (A) (A)
                 (A) (A) (A) (A) (A) (A) (A) (A) (A) (A) (A) (A)
                 (A) (A) (A) (A) (A) (A) (A) (A) (A) (A) (A) (A)
                 (A) (A) (A) (A) (A) (A) (A) (A) (A) (A) (A) (A)
                 (A) (A) (A) (A) (A) (A) (A) (A) (A)
       Virtual   (A) (A) (A) (A) (A) (A) (A) (A) (A) (A) (A) (A)
                 (A) (A) (A) (A) (A) (A) (A) (A) (A) (A) (A) (A)
                 (A) (A) (A) (A) (A) (A) (A) (A) (A) (A) (A) (A)
                 (A) (A) (A) (A) (A) (A) (A) (A) (A)
 The electronic state is 1-A.
 Alpha  occ. eigenvalues --  -20.29756 -20.26128 -15.31180 -11.11374 -11.11102
 Alpha  occ. eigenvalues --  -11.09739 -11.07955 -11.07210 -11.06711 -11.06234
 Alpha  occ. eigenvalues --  -11.05241 -11.05220 -11.04319 -11.04009 -11.04001
 Alpha  occ. eigenvalues --  -11.03968 -11.02906 -11.02268 -11.01947  -1.34521
 Alpha  occ. eigenvalues --   -1.31384  -1.20118  -1.09828  -1.04818  -1.02863
 Alpha  occ. eigenvalues --   -0.99105  -0.97735  -0.94725  -0.91867  -0.88325
 Alpha  occ. eigenvalues --   -0.83694  -0.79922  -0.77570  -0.75355  -0.74692
 Alpha  occ. eigenvalues --   -0.72527  -0.69050  -0.64497  -0.63882  -0.62016
 Alpha  occ. eigenvalues --   -0.61348  -0.60582  -0.58494  -0.56927  -0.56216
 Alpha  occ. eigenvalues --   -0.54994  -0.54474  -0.53126  -0.52380  -0.52092
 Alpha  occ. eigenvalues --   -0.50733  -0.49887  -0.49495  -0.47708  -0.46563
 Alpha  occ. eigenvalues --   -0.45672  -0.45183  -0.44373  -0.44041  -0.42894
 Alpha  occ. eigenvalues --   -0.42703  -0.42075  -0.39668  -0.38934  -0.36647
 Alpha  occ. eigenvalues --   -0.31121  -0.28868  -0.27311  -0.24616
 Alpha virt. eigenvalues --    0.21182   0.26826   0.34610   0.49351   0.51574
 Alpha virt. eigenvalues --    0.53446   0.55677   0.56619   0.58302   0.59467
 Alpha virt. eigenvalues --    0.60404   0.61970   0.63289   0.63964   0.64807
 Alpha virt. eigenvalues --    0.66634   0.67320   0.68150   0.68931   0.69648
 Alpha virt. eigenvalues --    0.70582   0.71664   0.72945   0.73532   0.73654
 Alpha virt. eigenvalues --    0.74568   0.74668   0.75169   0.76066   0.76977
 Alpha virt. eigenvalues --    0.77951   0.78123   0.78438   0.78978   0.81386
 Alpha virt. eigenvalues --    0.83077   0.83863   0.86180   0.86934   0.88156
 Alpha virt. eigenvalues --    0.90667   0.93427   1.00679   1.11942   1.13564
          Condensed to atoms (all electrons):
               1          2          3          4          5          6
     1  C    4.758425   0.505517  -0.028710  -0.010045  -0.028036   0.496705
     2  C    0.505517   4.807402   0.504114  -0.031555  -0.011366  -0.031118
     3  C   -0.028710   0.504114   4.759201   0.509037  -0.029287  -0.009485
     4  C   -0.010045  -0.031555   0.509037   4.807401   0.499133  -0.032147
     5  C   -0.028036  -0.011366  -0.029287   0.499133   4.754149   0.489787
     6  C    0.496705  -0.031118  -0.009485  -0.032147   0.489787   4.872686
     7  C   -0.023395   0.000765   0.000018   0.000801  -0.029732   0.389631
     8  O    0.000248   0.000008   0.000353  -0.027267   0.293792  -0.017087
     9  C    0.000029   0.000000  -0.000020   0.001673  -0.040312  -0.007470
    10  C    0.000616  -0.000007  -0.000000  -0.000036  -0.004435  -0.034395
    11  C    0.000000   0.000000   0.000000  -0.000014   0.001605  -0.000001
    12  C    0.000000  -0.000000   0.000000  -0.000000   0.000005  -0.000000
    13  N    0.000000  -0.000000  -0.000000  -0.000000  -0.000000  -0.000004
    14  C   -0.000006   0.000000   0.000000  -0.000001  -0.000010   0.000156
    15  C   -0.000000   0.000000  -0.000000   0.000000  -0.000001   0.000012
    16  C   -0.000000   0.000000   0.000000  -0.000000   0.000000  -0.000000
    17  C   -0.000000   0.000000   0.000000  -0.000000   0.000000   0.000000
    18  O   -0.001044  -0.000004  -0.000000  -0.000002   0.000323  -0.027351
    19  C    0.381490  -0.030271   0.000880   0.000011   0.000716  -0.024010
    20  H   -0.000015   0.000000  -0.000000   0.000001   0.000031   0.001060
    21  H   -0.000011  -0.000001   0.000000   0.000103  -0.003132   0.000629
    22  H   -0.000005   0.000000  -0.000000   0.000000   0.000014   0.000123
    23  H   -0.025030   0.394212  -0.026849   0.001424   0.000049   0.001257
    24  H    0.001321  -0.024818   0.393613  -0.025127   0.001372   0.000008
    25  H    0.000036   0.001386  -0.024670   0.393470  -0.025311   0.001234
    26  H   -0.000000  -0.000000  -0.000000   0.000000  -0.000037  -0.000001
    27  H   -0.000000   0.000000   0.000000  -0.000002   0.000039   0.000001
    28  H    0.000000   0.000000   0.000000  -0.000000   0.000001  -0.000000
    29  H   -0.000000  -0.000000  -0.000000   0.000001  -0.000028   0.000000
    30  H    0.000000  -0.000000   0.000000  -0.000000  -0.000000  -0.000000
    31  H   -0.000000   0.000000  -0.000000   0.000000   0.000000   0.000002
    32  H   -0.000000  -0.000000  -0.000000   0.000000  -0.000000   0.000000
    33  H    0.000000  -0.000000  -0.000000   0.000000  -0.000000   0.000000
    34  H    0.000000  -0.000000  -0.000000  -0.000000  -0.000000  -0.000000
    35  H    0.000000  -0.000000   0.000000   0.000000  -0.000000  -0.000000
    36  H   -0.021088   0.000823  -0.000023   0.000002   0.000003  -0.002052
    37  H   -0.020533  -0.005655   0.000061  -0.000000  -0.000016   0.001128
    38  H   -0.021137   0.000604  -0.000023   0.000003  -0.000002  -0.001615
               7          8          9         10         11         12
     1  C   -0.023395   0.000248   0.000029   0.000616   0.000000   0.000000
     2  C    0.000765   0.000008   0.000000  -0.000007   0.000000  -0.000000
     3  C    0.000018   0.000353  -0.000020  -0.000000   0.000000   0.000000
     4  C    0.000801  -0.027267   0.001673  -0.000036  -0.000014  -0.000000
     5  C   -0.029732   0.293792  -0.040312  -0.004435   0.001605   0.000005
     6  C    0.389631  -0.017087  -0.007470  -0.034395  -0.000001  -0.000000
     7  C    4.769746  -0.001981  -0.023653   0.358196   0.000712  -0.000007
     8  O   -0.001981   7.800474   0.261273  -0.016464  -0.019539  -0.000509
     9  C   -0.023653   0.261273   4.743580   0.355971   0.359900  -0.021592
    10  C    0.358196  -0.016464   0.355971   4.815451  -0.023427  -0.003170
    11  C    0.000712  -0.019539   0.359900  -0.023427   4.752620   0.361111
    12  C   -0.000007  -0.000509  -0.021592  -0.003170   0.361111   4.702746
    13  N    0.000473   0.000024  -0.002957  -0.022389  -0.023466   0.329139
    14  C   -0.022610  -0.000580  -0.022939   0.362254  -0.004653  -0.033773
    15  C   -0.001310  -0.000001   0.000686  -0.018695   0.000013   0.001474
    16  C    0.000005   0.000000  -0.000010   0.000870  -0.000015   0.001404
    17  C   -0.000010  -0.000000   0.000014   0.001274   0.001109  -0.031840
    18  O    0.431647  -0.000000   0.000322  -0.026711  -0.000001  -0.000000
    19  C   -0.002569  -0.000001  -0.000000   0.000007  -0.000000  -0.000000
    20  H   -0.022807   0.000536  -0.021248   0.380282  -0.001197   0.000083
    21  H   -0.001529  -0.018430   0.376982  -0.025082  -0.023578   0.001178
    22  H   -0.002079   0.000144  -0.001589  -0.026233  -0.000067  -0.003166
    23  H   -0.000014   0.000000  -0.000000   0.000000   0.000000   0.000000
    24  H    0.000001  -0.000005   0.000000  -0.000000  -0.000000  -0.000000
    25  H   -0.000018  -0.001099   0.000034   0.000000  -0.000003  -0.000000
    26  H    0.000007   0.000589  -0.020820  -0.001039   0.381959  -0.021492
    27  H   -0.000018  -0.000966  -0.020873   0.001191   0.381446  -0.021439
    28  H    0.000001  -0.000003   0.001195   0.000005  -0.020641   0.382615
    29  H   -0.000002   0.000233  -0.001475  -0.000063  -0.023735   0.377547
    30  H   -0.000017  -0.000000   0.000020  -0.003468   0.000002  -0.000004
    31  H    0.000009   0.000000  -0.000009   0.000154  -0.000001  -0.000031
    32  H   -0.000000  -0.000000   0.000000  -0.000020   0.000000  -0.000016
    33  H   -0.000000  -0.000000   0.000000  -0.000010   0.000000  -0.000033
    34  H    0.000000   0.000000  -0.000001  -0.000021   0.000003  -0.000236
    35  H    0.000000  -0.000000   0.000000  -0.000022  -0.000003  -0.003927
    36  H   -0.000068  -0.000000  -0.000000  -0.000003  -0.000000   0.000000
    37  H    0.000014   0.000000   0.000000   0.000000   0.000000   0.000000
    38  H   -0.000057  -0.000000  -0.000000  -0.000002   0.000000  -0.000000
              13         14         15         16         17         18
     1  C    0.000000  -0.000006  -0.000000  -0.000000  -0.000000  -0.001044
     2  C   -0.000000   0.000000   0.000000   0.000000   0.000000  -0.000004
     3  C   -0.000000   0.000000  -0.000000   0.000000   0.000000  -0.000000
     4  C   -0.000000  -0.000001   0.000000  -0.000000  -0.000000  -0.000002
     5  C   -0.000000  -0.000010  -0.000001   0.000000   0.000000   0.000323
     6  C   -0.000004   0.000156   0.000012  -0.000000   0.000000  -0.027351
     7  C    0.000473  -0.022610  -0.001310   0.000005  -0.000010   0.431647
     8  O    0.000024  -0.000580  -0.000001   0.000000  -0.000000  -0.000000
     9  C   -0.002957  -0.022939   0.000686  -0.000010   0.000014   0.000322
    10  C   -0.022389   0.362254  -0.018695   0.000870   0.001274  -0.026711
    11  C   -0.023466  -0.004653   0.000013  -0.000015   0.001109  -0.000001
    12  C    0.329139  -0.033773   0.001474   0.001404  -0.031840  -0.000000
    13  N    6.517053   0.327328  -0.036027  -0.032196   0.332662  -0.000000
    14  C    0.327328   4.741668   0.366095  -0.033790  -0.047935  -0.000504
    15  C   -0.036027   0.366095   4.758562   0.361178  -0.031036  -0.000075
    16  C   -0.032196  -0.033790   0.361178   4.757322   0.362830   0.000000
    17  C    0.332662  -0.047935  -0.031036   0.362830   4.716867  -0.000000
    18  O   -0.000000  -0.000504  -0.000075   0.000000  -0.000000   7.856858
    19  C    0.000000  -0.000000  -0.000000   0.000000  -0.000000  -0.001651
    20  H   -0.000969  -0.020291  -0.002688   0.000027   0.000025  -0.001488
    21  H   -0.000008   0.001223  -0.000013   0.000000   0.000001   0.000002
    22  H   -0.021838   0.377452  -0.025623  -0.000750  -0.002349   0.000029
    23  H    0.000000  -0.000000  -0.000000  -0.000000  -0.000000   0.000000
    24  H   -0.000000  -0.000000   0.000000  -0.000000  -0.000000  -0.000000
    25  H    0.000000  -0.000000   0.000000  -0.000000  -0.000000   0.000000
    26  H   -0.000948   0.000087  -0.000005  -0.000000   0.000009  -0.000000
    27  H    0.000935   0.000003   0.000001   0.000000  -0.000024   0.000000
    28  H   -0.020369   0.001804  -0.000032   0.000006  -0.002228  -0.000000
    29  H   -0.021950  -0.003163  -0.000002  -0.000005  -0.002504   0.000000
    30  H   -0.000439  -0.020976   0.384216  -0.021387   0.000867   0.000036
    31  H    0.001172  -0.020163   0.383595  -0.020117   0.001277  -0.000037
    32  H    0.000533   0.001375  -0.021222   0.385020  -0.020699   0.000000
    33  H    0.001039   0.000820  -0.020985   0.383930  -0.021458   0.000000
    34  H   -0.021028   0.002023   0.001270  -0.019419   0.383493   0.000000
    35  H   -0.021410  -0.001573   0.000550  -0.023215   0.378640   0.000000
    36  H    0.000000  -0.000000   0.000000  -0.000000   0.000000  -0.000352
    37  H    0.000000   0.000000  -0.000000  -0.000000  -0.000000   0.000064
    38  H   -0.000000   0.000000  -0.000000   0.000000   0.000000  -0.000350
              19         20         21         22         23         24
     1  C    0.381490  -0.000015  -0.000011  -0.000005  -0.025030   0.001321
     2  C   -0.030271   0.000000  -0.000001   0.000000   0.394212  -0.024818
     3  C    0.000880  -0.000000   0.000000  -0.000000  -0.026849   0.393613
     4  C    0.000011   0.000001   0.000103   0.000000   0.001424  -0.025127
     5  C    0.000716   0.000031  -0.003132   0.000014   0.000049   0.001372
     6  C   -0.024010   0.001060   0.000629   0.000123   0.001257   0.000008
     7  C   -0.002569  -0.022807  -0.001529  -0.002079  -0.000014   0.000001
     8  O   -0.000001   0.000536  -0.018430   0.000144   0.000000  -0.000005
     9  C   -0.000000  -0.021248   0.376982  -0.001589  -0.000000   0.000000
    10  C    0.000007   0.380282  -0.025082  -0.026233   0.000000  -0.000000
    11  C   -0.000000  -0.001197  -0.023578  -0.000067   0.000000  -0.000000
    12  C   -0.000000   0.000083   0.001178  -0.003166   0.000000  -0.000000
    13  N    0.000000  -0.000969  -0.000008  -0.021838   0.000000  -0.000000
    14  C   -0.000000  -0.020291   0.001223   0.377452  -0.000000  -0.000000
    15  C   -0.000000  -0.002688  -0.000013  -0.025623  -0.000000   0.000000
    16  C    0.000000   0.000027   0.000000  -0.000750  -0.000000  -0.000000
    17  C   -0.000000   0.000025   0.000001  -0.002349  -0.000000  -0.000000
    18  O   -0.001651  -0.001488   0.000002   0.000029   0.000000  -0.000000
    19  C    4.712999  -0.000000  -0.000000  -0.000000  -0.004259  -0.000016
    20  H   -0.000000   0.611611  -0.002424   0.001744  -0.000000   0.000000
    21  H   -0.000000  -0.002424   0.642459  -0.000007  -0.000000   0.000000
    22  H   -0.000000   0.001744  -0.000007   0.659534  -0.000000   0.000000
    23  H   -0.004259  -0.000000  -0.000000  -0.000000   0.605101  -0.003751
    24  H   -0.000016   0.000000   0.000000   0.000000  -0.003751   0.594023
    25  H    0.000000  -0.000000   0.000001  -0.000000  -0.000033  -0.003714
    26  H    0.000000  -0.000043  -0.002528   0.000007  -0.000000   0.000000
    27  H   -0.000000   0.000012  -0.001605  -0.000006   0.000000  -0.000000
    28  H    0.000000  -0.000010  -0.000027  -0.000024   0.000000  -0.000000
    29  H    0.000000   0.000005  -0.000009   0.001579  -0.000000   0.000000
    30  H    0.000000   0.000395  -0.000001   0.001767   0.000000  -0.000000
    31  H   -0.000000   0.000021   0.000000  -0.003794  -0.000000   0.000000
    32  H   -0.000000  -0.000001  -0.000000  -0.000016  -0.000000   0.000000
    33  H    0.000000  -0.000001  -0.000000   0.000063   0.000000  -0.000000
    34  H    0.000000  -0.000000  -0.000000  -0.000058   0.000000  -0.000000
    35  H    0.000000  -0.000001  -0.000000   0.001157   0.000000  -0.000000
    36  H    0.380838   0.000000   0.000000   0.000000   0.000068   0.000000
    37  H    0.382726  -0.000000  -0.000000  -0.000000   0.000163  -0.000003
    38  H    0.380537   0.000000  -0.000000   0.000000   0.000072   0.000000
              25         26         27         28         29         30
     1  C    0.000036  -0.000000  -0.000000   0.000000  -0.000000   0.000000
     2  C    0.001386  -0.000000   0.000000   0.000000  -0.000000  -0.000000
     3  C   -0.024670  -0.000000   0.000000   0.000000  -0.000000   0.000000
     4  C    0.393470   0.000000  -0.000002  -0.000000   0.000001  -0.000000
     5  C   -0.025311  -0.000037   0.000039   0.000001  -0.000028  -0.000000
     6  C    0.001234  -0.000001   0.000001  -0.000000   0.000000  -0.000000
     7  C   -0.000018   0.000007  -0.000018   0.000001  -0.000002  -0.000017
     8  O   -0.001099   0.000589  -0.000966  -0.000003   0.000233  -0.000000
     9  C    0.000034  -0.020820  -0.020873   0.001195  -0.001475   0.000020
    10  C    0.000000  -0.001039   0.001191   0.000005  -0.000063  -0.003468
    11  C   -0.000003   0.381959   0.381446  -0.020641  -0.023735   0.000002
    12  C   -0.000000  -0.021492  -0.021439   0.382615   0.377547  -0.000004
    13  N    0.000000  -0.000948   0.000935  -0.020369  -0.021950  -0.000439
    14  C   -0.000000   0.000087   0.000003   0.001804  -0.003163  -0.020976
    15  C    0.000000  -0.000005   0.000001  -0.000032  -0.000002   0.384216
    16  C   -0.000000  -0.000000   0.000000   0.000006  -0.000005  -0.021387
    17  C   -0.000000   0.000009  -0.000024  -0.002228  -0.002504   0.000867
    18  O    0.000000  -0.000000   0.000000  -0.000000   0.000000   0.000036
    19  C    0.000000   0.000000  -0.000000   0.000000   0.000000   0.000000
    20  H   -0.000000  -0.000043   0.000012  -0.000010   0.000005   0.000395
    21  H    0.000001  -0.002528  -0.001605  -0.000027  -0.000009  -0.000001
    22  H   -0.000000   0.000007  -0.000006  -0.000024   0.001579   0.001767
    23  H   -0.000033  -0.000000   0.000000   0.000000  -0.000000   0.000000
    24  H   -0.003714   0.000000  -0.000000  -0.000000   0.000000  -0.000000
    25  H    0.589856   0.000000  -0.000000  -0.000000   0.000000  -0.000000
    26  H    0.000000   0.622989  -0.021529  -0.003149   0.001814  -0.000000
    27  H   -0.000000  -0.021529   0.622703  -0.001562  -0.002330  -0.000000
    28  H   -0.000000  -0.003149  -0.001562   0.626636  -0.025557   0.000001
    29  H    0.000000   0.001814  -0.002330  -0.025557   0.648963  -0.000002
    30  H   -0.000000  -0.000000  -0.000000   0.000001  -0.000002   0.624218
    31  H   -0.000000   0.000000  -0.000000   0.000001   0.000001  -0.023103
    32  H    0.000000  -0.000000  -0.000000   0.000000  -0.000001  -0.006759
    33  H   -0.000000   0.000000  -0.000000  -0.000001   0.000003   0.001682
    34  H    0.000000   0.000001  -0.000000   0.000405  -0.000171  -0.000037
    35  H   -0.000000  -0.000000   0.000000  -0.000303   0.001745  -0.000029
    36  H   -0.000000  -0.000000   0.000000  -0.000000   0.000000  -0.000000
    37  H    0.000000  -0.000000  -0.000000   0.000000  -0.000000   0.000000
    38  H   -0.000000   0.000000  -0.000000   0.000000   0.000000   0.000000
              31         32         33         34         35         36
     1  C   -0.000000  -0.000000   0.000000   0.000000   0.000000  -0.021088
     2  C    0.000000  -0.000000  -0.000000  -0.000000  -0.000000   0.000823
     3  C   -0.000000  -0.000000  -0.000000  -0.000000   0.000000  -0.000023
     4  C    0.000000   0.000000   0.000000  -0.000000   0.000000   0.000002
     5  C    0.000000  -0.000000  -0.000000  -0.000000  -0.000000   0.000003
     6  C    0.000002   0.000000   0.000000  -0.000000  -0.000000  -0.002052
     7  C    0.000009  -0.000000  -0.000000   0.000000   0.000000  -0.000068
     8  O    0.000000  -0.000000  -0.000000   0.000000  -0.000000  -0.000000
     9  C   -0.000009   0.000000   0.000000  -0.000001   0.000000  -0.000000
    10  C    0.000154  -0.000020  -0.000010  -0.000021  -0.000022  -0.000003
    11  C   -0.000001   0.000000   0.000000   0.000003  -0.000003  -0.000000
    12  C   -0.000031  -0.000016  -0.000033  -0.000236  -0.003927   0.000000
    13  N    0.001172   0.000533   0.001039  -0.021028  -0.021410   0.000000
    14  C   -0.020163   0.001375   0.000820   0.002023  -0.001573  -0.000000
    15  C    0.383595  -0.021222  -0.020985   0.001270   0.000550   0.000000
    16  C   -0.020117   0.385020   0.383930  -0.019419  -0.023215  -0.000000
    17  C    0.001277  -0.020699  -0.021458   0.383493   0.378640   0.000000
    18  O   -0.000037   0.000000   0.000000   0.000000   0.000000  -0.000352
    19  C   -0.000000  -0.000000   0.000000   0.000000   0.000000   0.380838
    20  H    0.000021  -0.000001  -0.000001  -0.000000  -0.000001   0.000000
    21  H    0.000000  -0.000000  -0.000000  -0.000000  -0.000000   0.000000
    22  H   -0.003794  -0.000016   0.000063  -0.000058   0.001157   0.000000
    23  H   -0.000000  -0.000000   0.000000   0.000000   0.000000   0.000068
    24  H    0.000000   0.000000  -0.000000  -0.000000  -0.000000   0.000000
    25  H   -0.000000   0.000000  -0.000000   0.000000  -0.000000  -0.000000
    26  H    0.000000  -0.000000   0.000000   0.000001  -0.000000  -0.000000
    27  H   -0.000000  -0.000000  -0.000000  -0.000000   0.000000   0.000000
    28  H    0.000001   0.000000  -0.000001   0.000405  -0.000303  -0.000000
    29  H    0.000001  -0.000001   0.000003  -0.000171   0.001745   0.000000
    30  H   -0.023103  -0.006759   0.001682  -0.000037  -0.000029  -0.000000
    31  H    0.628793   0.001167  -0.005744  -0.000021  -0.000016   0.000000
    32  H    0.001167   0.629255  -0.023323  -0.005415   0.001682   0.000000
    33  H   -0.005744  -0.023323   0.635431   0.001138  -0.006055   0.000000
    34  H   -0.000021  -0.005415   0.001138   0.624734  -0.026719   0.000000
    35  H   -0.000016   0.001682  -0.006055  -0.026719   0.656367  -0.000000
    36  H    0.000000   0.000000   0.000000   0.000000  -0.000000   0.607506
    37  H    0.000000  -0.000000  -0.000000   0.000000   0.000000  -0.022170
    38  H    0.000000  -0.000000  -0.000000  -0.000000   0.000000  -0.018363
              37         38
     1  C   -0.020533  -0.021137
     2  C   -0.005655   0.000604
     3  C    0.000061  -0.000023
     4  C   -0.000000   0.000003
     5  C   -0.000016  -0.000002
     6  C    0.001128  -0.001615
     7  C    0.000014  -0.000057
     8  O    0.000000  -0.000000
     9  C    0.000000  -0.000000
    10  C    0.000000  -0.000002
    11  C    0.000000   0.000000
    12  C    0.000000  -0.000000
    13  N    0.000000  -0.000000
    14  C    0.000000   0.000000
    15  C   -0.000000  -0.000000
    16  C   -0.000000   0.000000
    17  C   -0.000000   0.000000
    18  O    0.000064  -0.000350
    19  C    0.382726   0.380537
    20  H   -0.000000   0.000000
    21  H   -0.000000  -0.000000
    22  H   -0.000000   0.000000
    23  H    0.000163   0.000072
    24  H   -0.000003   0.000000
    25  H    0.000000  -0.000000
    26  H   -0.000000   0.000000
    27  H   -0.000000  -0.000000
    28  H    0.000000   0.000000
    29  H   -0.000000   0.000000
    30  H    0.000000   0.000000
    31  H    0.000000   0.000000
    32  H   -0.000000  -0.000000
    33  H   -0.000000  -0.000000
    34  H    0.000000  -0.000000
    35  H    0.000000   0.000000
    36  H   -0.022170  -0.018363
    37  H    0.625198  -0.021836
    38  H   -0.021836   0.605786
 Mulliken charges:
               1
     1  C    0.034667
     2  C   -0.080036
     3  C   -0.048211
     4  C   -0.086866
     5  C    0.130688
     6  C   -0.067687
     7  C    0.179850
     8  O   -0.253742
     9  C    0.083286
    10  C   -0.070577
    11  C   -0.100141
    12  C   -0.016067
    13  N   -0.284359
    14  C    0.050680
    15  C   -0.099935
    16  C   -0.101686
    17  C   -0.018987
    18  O   -0.229712
    19  C   -0.177427
    20  H    0.077351
    21  H    0.055805
    22  H    0.043991
    23  H    0.057589
    24  H    0.067095
    25  H    0.068830
    26  H    0.064129
    27  H    0.064023
    28  H    0.061235
    29  H    0.049105
    30  H    0.063019
    31  H    0.056841
    32  H    0.058439
    33  H    0.053503
    34  H    0.060059
    35  H    0.043131
    36  H    0.074877
    37  H    0.060858
    38  H    0.076382
 Sum of Mulliken charges =  -0.00000
 Mulliken charges with hydrogens summed into heavy atoms:
               1
     1  C    0.034667
     2  C   -0.022447
     3  C    0.018884
     4  C   -0.018036
     5  C    0.130688
     6  C   -0.067687
     7  C    0.179850
     8  O   -0.253742
     9  C    0.139091
    10  C    0.006774
    11  C    0.028011
    12  C    0.094273
    13  N   -0.284359
    14  C    0.094671
    15  C    0.019925
    16  C    0.010256
    17  C    0.084203
    18  O   -0.229712
    19  C    0.034690
 Electronic spatial extent (au):  <R**2>=           4898.3271
 Charge=             -0.0000 electrons
 Dipole moment (field-independent basis, Debye):
    X=             -0.1340    Y=             -0.9936    Z=             -0.4623  Tot=              1.1040
 Quadrupole moment (field-independent basis, Debye-Ang):
   XX=           -101.5235   YY=           -109.0579   ZZ=           -103.6924
   XY=             -0.2187   XZ=             -0.6142   YZ=             -2.8217
 Traceless Quadrupole moment (field-independent basis, Debye-Ang):
   XX=              3.2344   YY=             -4.2999   ZZ=              1.0655
   XY=             -0.2187   XZ=             -0.6142   YZ=             -2.8217
 Octapole moment (field-independent basis, Debye-Ang**2):
  XXX=            -16.9647  YYY=            -10.9698  ZZZ=             10.2147  XYY=              3.7881
  XXY=              0.0678  XXZ=            -11.6587  XZZ=              2.8049  YZZ=             -2.2500
  YYZ=             -4.9891  XYZ=             -2.7348
 Hexadecapole moment (field-independent basis, Debye-Ang**3):
 XXXX=          -4149.9944 YYYY=          -1497.2300 ZZZZ=           -505.9379 XXXY=            -20.7462
 XXXZ=             14.6165 YYYX=             -0.9818 YYYZ=             -3.3843 ZZZX=             -8.2748
 ZZZY=             10.5440 XXYY=           -923.3919 XXZZ=           -799.3506 YYZZ=           -329.9510
 XXYZ=             19.4426 YYXZ=             17.2859 ZZXY=              2.1007
 N-N= 1.500370395014D+03 E-N=-4.896052416175D+03  KE= 8.035606698054D+02
 ******************************Gaussian NBO Version 3.1******************************
             N A T U R A L   A T O M I C   O R B I T A L   A N D
          N A T U R A L   B O N D   O R B I T A L   A N A L Y S I S
 ******************************Gaussian NBO Version 3.1******************************
       /RESON  / : Allow strongly delocalized NBO set
       /NLMO   / : Form Natural Localized Molecular Orbitals
       /NMR /    : Analyze NMR Sheilding Tensor 

 Analyzing the SCF density

 Job title: Title Card Required                                             

 Storage needed:     43472 in NPA,     53775 in NBO,    102144 in NLMO ( 104850000 available)
 GSVD:  LWork=      -13908 too small for GESVD, short by       66690 words or       66690 for optimal perf.


 NATURAL POPULATIONS:  Natural atomic orbital occupancies 
                                                          
   NAO  Atom  No  lang   Type(AO)    Occupancy      Energy
 ----------------------------------------------------------
     1    C    1  S      Cor( 1S)     1.99991     -10.98415
     2    C    1  S      Val( 2S)     1.08194      -0.20096
     3    C    1  px     Val( 2p)     0.95520       0.14813
     4    C    1  py     Val( 2p)     0.94881       0.13950
     5    C    1  pz     Val( 2p)     0.93717       0.04554

     6    C    2  S      Cor( 1S)     1.99995     -10.94702
     7    C    2  S      Val( 2S)     1.08015      -0.18575
     8    C    2  px     Val( 2p)     0.98381       0.13558
     9    C    2  py     Val( 2p)     0.97791       0.14096
    10    C    2  pz     Val( 2p)     1.03244       0.02607

    11    C    3  S      Cor( 1S)     1.99994     -10.96418
    12    C    3  S      Val( 2S)     1.07993      -0.18918
    13    C    3  px     Val( 2p)     0.98037       0.13127
    14    C    3  py     Val( 2p)     0.98231       0.13218
    15    C    3  pz     Val( 2p)     0.96491       0.03472

    16    C    4  S      Cor( 1S)     1.99994     -10.94864
    17    C    4  S      Val( 2S)     1.07686      -0.18573
    18    C    4  px     Val( 2p)     0.97949       0.13551
    19    C    4  py     Val( 2p)     0.99302       0.12961
    20    C    4  pz     Val( 2p)     1.04653       0.01931

    21    C    5  S      Cor( 1S)     1.99978     -11.03277
    22    C    5  S      Val( 2S)     1.05987      -0.21468
    23    C    5  px     Val( 2p)     0.84385       0.14142
    24    C    5  py     Val( 2p)     0.94056       0.13852
    25    C    5  pz     Val( 2p)     0.96857       0.01011

    26    C    6  S      Cor( 1S)     1.99991     -10.96117
    27    C    6  S      Val( 2S)     1.08709      -0.20784
    28    C    6  px     Val( 2p)     0.98536       0.12887
    29    C    6  py     Val( 2p)     0.97363       0.13070
    30    C    6  pz     Val( 2p)     1.08317       0.00119

    31    C    7  S      Cor( 1S)     1.99996     -11.05306
    32    C    7  S      Val( 2S)     1.07767      -0.24272
    33    C    7  px     Val( 2p)     0.93644       0.10427
    34    C    7  py     Val( 2p)     0.85211       0.16860
    35    C    7  pz     Val( 2p)     0.89733       0.01090

    36    O    8  S      Cor( 1S)     1.99999     -20.20698
    37    O    8  S      Val( 2S)     1.73294      -1.02124
    38    O    8  px     Val( 2p)     1.31877      -0.13157
    39    O    8  py     Val( 2p)     1.68074      -0.29676
    40    O    8  pz     Val( 2p)     1.52714      -0.22828

    41    C    9  S      Cor( 1S)     1.99988     -11.05988
    42    C    9  S      Val( 2S)     1.08805      -0.24249
    43    C    9  px     Val( 2p)     0.93942       0.06375
    44    C    9  py     Val( 2p)     0.94767       0.07381
    45    C    9  pz     Val( 2p)     0.87013       0.09265

    46    C   10  S      Cor( 1S)     1.99996     -11.00350
    47    C   10  S      Val( 2S)     1.10039      -0.22839
    48    C   10  px     Val( 2p)     0.99854       0.06740
    49    C   10  py     Val( 2p)     0.98108       0.07250
    50    C   10  pz     Val( 2p)     1.00955       0.06942

    51    C   11  S      Cor( 1S)     1.99996     -10.99123
    52    C   11  S      Val( 2S)     1.08964      -0.20893
    53    C   11  px     Val( 2p)     0.97604       0.08180
    54    C   11  py     Val( 2p)     1.00959       0.07685
    55    C   11  pz     Val( 2p)     1.00346       0.07747

    56    C   12  S      Cor( 1S)     1.99994     -11.01205
    57    C   12  S      Val( 2S)     1.07323      -0.19735
    58    C   12  px     Val( 2p)     1.00889       0.07239
    59    C   12  py     Val( 2p)     0.88442       0.11181
    60    C   12  pz     Val( 2p)     0.99590       0.08082

    61    N   13  S      Cor( 1S)     1.99999     -15.24427
    62    N   13  S      Val( 2S)     1.44867      -0.59765
    63    N   13  px     Val( 2p)     1.13740       0.00049
    64    N   13  py     Val( 2p)     1.09253       0.02563
    65    N   13  pz     Val( 2p)     1.59296      -0.17462

    66    C   14  S      Cor( 1S)     1.99994     -11.02312
    67    C   14  S      Val( 2S)     1.07988      -0.21165
    68    C   14  px     Val( 2p)     0.89660       0.10993
    69    C   14  py     Val( 2p)     0.95678       0.07606
    70    C   14  pz     Val( 2p)     0.96985       0.09324

    71    C   15  S      Cor( 1S)     1.99997     -10.97710
    72    C   15  S      Val( 2S)     1.08500      -0.19197
    73    C   15  px     Val( 2p)     0.98421       0.08995
    74    C   15  py     Val( 2p)     0.98020       0.09729
    75    C   15  pz     Val( 2p)     1.02012       0.08600

    76    C   16  S      Cor( 1S)     1.99997     -10.97758
    77    C   16  S      Val( 2S)     1.08334      -0.19144
    78    C   16  px     Val( 2p)     0.99216       0.08858
    79    C   16  py     Val( 2p)     0.97854       0.09291
    80    C   16  pz     Val( 2p)     1.01245       0.09273

    81    C   17  S      Cor( 1S)     1.99995     -11.00645
    82    C   17  S      Val( 2S)     1.07492      -0.19458
    83    C   17  px     Val( 2p)     0.97547       0.09015
    84    C   17  py     Val( 2p)     0.97602       0.07562
    85    C   17  pz     Val( 2p)     0.93854       0.10740

    86    O   18  S      Cor( 1S)     1.99999     -20.11149
    87    O   18  S      Val( 2S)     1.80600      -1.05967
    88    O   18  px     Val( 2p)     1.84888      -0.32798
    89    O   18  py     Val( 2p)     1.34510      -0.11228
    90    O   18  pz     Val( 2p)     1.24001      -0.12855

    91    C   19  S      Cor( 1S)     1.99997     -10.97586
    92    C   19  S      Val( 2S)     1.07807      -0.18626
    93    C   19  px     Val( 2p)     1.03541       0.07512
    94    C   19  py     Val( 2p)     0.99161       0.08246
    95    C   19  pz     Val( 2p)     1.04122       0.07260

    96    H   20  S      Val( 1S)     0.94421       0.06319

    97    H   21  S      Val( 1S)     0.98127       0.03438

    98    H   22  S      Val( 1S)     0.98700       0.04610

    99    H   23  S      Val( 1S)     0.96771       0.06698

   100    H   24  S      Val( 1S)     0.96104       0.06105

   101    H   25  S      Val( 1S)     0.95598       0.07274

   102    H   26  S      Val( 1S)     0.95729       0.06531

   103    H   27  S      Val( 1S)     0.95773       0.06653

   104    H   28  S      Val( 1S)     0.96539       0.06222

   105    H   29  S      Val( 1S)     0.97951       0.06086

   106    H   30  S      Val( 1S)     0.95820       0.07848

   107    H   31  S      Val( 1S)     0.96402       0.07172

   108    H   32  S      Val( 1S)     0.96239       0.07386

   109    H   33  S      Val( 1S)     0.96708       0.06866

   110    H   34  S      Val( 1S)     0.96675       0.06658

   111    H   35  S      Val( 1S)     0.98432       0.05670

   112    H   36  S      Val( 1S)     0.94151       0.08206

   113    H   37  S      Val( 1S)     0.95577       0.07384

   114    H   38  S      Val( 1S)     0.93993       0.08270


 Summary of Natural Population Analysis:                  
                                                          
                                       Natural Population 
                Natural  -----------------------------------------------
    Atom  No    Charge         Core      Valence    Rydberg      Total
 -----------------------------------------------------------------------
      C    1    0.07697      1.99991     3.92312    0.00000     5.92303
      C    2   -0.07425      1.99995     4.07430    0.00000     6.07425
      C    3   -0.00746      1.99994     4.00752    0.00000     6.00746
      C    4   -0.09584      1.99994     4.09590    0.00000     6.09584
      C    5    0.18737      1.99978     3.81285    0.00000     5.81263
      C    6   -0.12915      1.99991     4.12924    0.00000     6.12915
      C    7    0.23649      1.99996     3.76355    0.00000     5.76351
      O    8   -0.25958      1.99999     6.25959    0.00000     8.25958
      C    9    0.15484      1.99988     3.84528    0.00000     5.84516
      C   10   -0.08952      1.99996     4.08956    0.00000     6.08952
      C   11   -0.07868      1.99996     4.07872    0.00000     6.07868
      C   12    0.03762      1.99994     3.96244    0.00000     5.96238
      N   13   -0.27155      1.99999     5.27156    0.00000     7.27155
      C   14    0.09696      1.99994     3.90310    0.00000     5.90304
      C   15   -0.06950      1.99997     4.06953    0.00000     6.06950
      C   16   -0.06646      1.99997     4.06650    0.00000     6.06646
      C   17    0.03510      1.99995     3.96495    0.00000     5.96490
      O   18   -0.23998      1.99999     6.23999    0.00000     8.23998
      C   19   -0.14628      1.99997     4.14631    0.00000     6.14628
      H   20    0.05579      0.00000     0.94421    0.00000     0.94421
      H   21    0.01873      0.00000     0.98127    0.00000     0.98127
      H   22    0.01300      0.00000     0.98700    0.00000     0.98700
      H   23    0.03229      0.00000     0.96771    0.00000     0.96771
      H   24    0.03896      0.00000     0.96104    0.00000     0.96104
      H   25    0.04402      0.00000     0.95598    0.00000     0.95598
      H   26    0.04271      0.00000     0.95729    0.00000     0.95729
      H   27    0.04227      0.00000     0.95773    0.00000     0.95773
      H   28    0.03461      0.00000     0.96539    0.00000     0.96539
      H   29    0.02049      0.00000     0.97951    0.00000     0.97951
      H   30    0.04180      0.00000     0.95820    0.00000     0.95820
      H   31    0.03598      0.00000     0.96402    0.00000     0.96402
      H   32    0.03761      0.00000     0.96239    0.00000     0.96239
      H   33    0.03292      0.00000     0.96708    0.00000     0.96708
      H   34    0.03325      0.00000     0.96675    0.00000     0.96675
      H   35    0.01568      0.00000     0.98432    0.00000     0.98432
      H   36    0.05849      0.00000     0.94151    0.00000     0.94151
      H   37    0.04423      0.00000     0.95577    0.00000     0.95577
      H   38    0.06007      0.00000     0.93993    0.00000     0.93993
 =======================================================================
   * Total *   -0.00000     37.99889   100.00111    0.00000   138.00000

                                 Natural Population      
 --------------------------------------------------------
   Core                      37.99889 ( 99.9971% of  38)
   Valence                  100.00111 (100.0011% of 100)
   Natural Minimal Basis    138.00000 (100.0000% of 138)
   Natural Rydberg Basis      0.00000 (  0.0000% of 138)
 --------------------------------------------------------

    Atom  No          Natural Electron Configuration
 ----------------------------------------------------------------------------
      C    1      [core]2S( 1.08)2p( 2.84)
      C    2      [core]2S( 1.08)2p( 2.99)
      C    3      [core]2S( 1.08)2p( 2.93)
      C    4      [core]2S( 1.08)2p( 3.02)
      C    5      [core]2S( 1.06)2p( 2.75)
      C    6      [core]2S( 1.09)2p( 3.04)
      C    7      [core]2S( 1.08)2p( 2.69)
      O    8      [core]2S( 1.73)2p( 4.53)
      C    9      [core]2S( 1.09)2p( 2.76)
      C   10      [core]2S( 1.10)2p( 2.99)
      C   11      [core]2S( 1.09)2p( 2.99)
      C   12      [core]2S( 1.07)2p( 2.89)
      N   13      [core]2S( 1.45)2p( 3.82)
      C   14      [core]2S( 1.08)2p( 2.82)
      C   15      [core]2S( 1.09)2p( 2.98)
      C   16      [core]2S( 1.08)2p( 2.98)
      C   17      [core]2S( 1.07)2p( 2.89)
      O   18      [core]2S( 1.81)2p( 4.43)
      C   19      [core]2S( 1.08)2p( 3.07)
      H   20            1S( 0.94)
      H   21            1S( 0.98)
      H   22            1S( 0.99)
      H   23            1S( 0.97)
      H   24            1S( 0.96)
      H   25            1S( 0.96)
      H   26            1S( 0.96)
      H   27            1S( 0.96)
      H   28            1S( 0.97)
      H   29            1S( 0.98)
      H   30            1S( 0.96)
      H   31            1S( 0.96)
      H   32            1S( 0.96)
      H   33            1S( 0.97)
      H   34            1S( 0.97)
      H   35            1S( 0.98)
      H   36            1S( 0.94)
      H   37            1S( 0.96)
      H   38            1S( 0.94)


 NATURAL BOND ORBITAL ANALYSIS:

                       Occupancies       Lewis Structure    Low   High
           Occ.    -------------------  -----------------   occ   occ
  Cycle   Thresh.   Lewis   Non-Lewis     CR  BD  3C  LP    (L)   (NL)   Dev
 =============================================================================
   1(1)    1.90   134.43085   3.56915     19  43   0   7     3      3    0.45
   2(2)    1.90   134.43085   3.56915     19  43   0   7     3      3    0.45
   3(1)    1.80   134.35577   3.64423     19  42   0   8     3      3    0.45
   4(2)    1.80   134.35577   3.64423     19  42   0   8     3      3    0.45
   5(1)    1.70   134.35577   3.64423     19  42   0   8     3      3    0.45
   6(2)    1.70   134.35577   3.64423     19  42   0   8     3      3    0.45
   7(1)    1.60   135.52718   2.47282     19  44   0   6     1      3    0.43
   8(2)    1.60   136.13714   1.86286     19  45   0   5     0      3    0.43
   9(3)    1.60   136.10171   1.89829     19  45   0   5     0      3    0.45
  10(4)    1.60   136.13714   1.86286     19  45   0   5     0      3    0.43
  11(1)    1.50   136.13714   1.86286     19  45   0   5     0      3    0.43
  12(2)    1.50   136.10171   1.89829     19  45   0   5     0      3    0.45
  13(3)    1.50   136.13714   1.86286     19  45   0   5     0      3    0.43
  14(1)    1.60   136.13714   1.86286     19  45   0   5     0      3    0.43
 -----------------------------------------------------------------------------

 Structure accepted: RESONANCE keyword permits strongly delocalized structure

 --------------------------------------------------------
   Core                     37.99889 ( 99.997% of  38)
   Valence Lewis            98.13825 ( 98.138% of 100)
  ==================       ============================
   Total Lewis             136.13714 ( 98.650% of 138)
  -----------------------------------------------------
   Valence non-Lewis         1.86286 (  1.350% of 138)
   Rydberg non-Lewis         0.00000 (  0.000% of 138)
  ==================       ============================
   Total non-Lewis           1.86286 (  1.350% of 138)
 --------------------------------------------------------


       (Occupancy)   Bond orbital/ Coefficients/ Hybrids
 ---------------------------------------------------------------------------------
     1. (1.98534) BD ( 1) C   1 - C   2  
                ( 50.00%)   0.7071* C   1 s( 33.72%)p 1.97( 66.28%)
                                            0.0000  0.5807 -0.5825 -0.4477 -0.3508
                ( 50.00%)   0.7071* C   2 s( 34.47%)p 1.90( 65.53%)
                                            0.0001  0.5871  0.5692  0.4482  0.3612
     2. (1.65781) BD ( 2) C   1 - C   2  
                ( 45.55%)   0.6749* C   1 s(  0.00%)p 1.00(100.00%)
                                            0.0000 -0.0012 -0.3114 -0.3023  0.9009
                ( 54.45%)   0.7379* C   2 s(  0.00%)p 1.00(100.00%)
                                           -0.0000 -0.0017 -0.3198 -0.3126  0.8944
     3. (1.98118) BD ( 1) C   1 - C   6  
                ( 49.47%)   0.7034* C   1 s( 34.63%)p 1.89( 65.37%)
                                            0.0001  0.5885  0.7323 -0.3076  0.1507
                ( 50.53%)   0.7108* C   6 s( 35.54%)p 1.81( 64.46%)
                                            0.0000  0.5962 -0.7112  0.3498 -0.1283
     4. (1.98737) BD ( 1) C   1 - C  19  
                ( 50.16%)   0.7082* C   1 s( 31.65%)p 2.16( 68.35%)
                                           -0.0000  0.5626 -0.1655  0.7833  0.2064
                ( 49.84%)   0.7060* C  19 s( 25.57%)p 2.91( 74.43%)
                                            0.0001  0.5057  0.1932 -0.8154 -0.2049
     5. (1.98979) BD ( 1) C   2 - C   3  
                ( 49.56%)   0.7040* C   2 s( 34.20%)p 1.92( 65.80%)
                                            0.0001  0.5848  0.1402 -0.7688 -0.2174
                ( 50.44%)   0.7102* C   3 s( 34.33%)p 1.91( 65.67%)
                                            0.0000  0.5859 -0.1544  0.7661  0.2145
     6. (1.98878) BD ( 1) C   2 - H  23  
                ( 51.64%)   0.7186* C   2 s( 31.34%)p 2.19( 68.66%)
                                           -0.0001  0.5598 -0.7444  0.3321 -0.1490
                ( 48.36%)   0.6954* H  23 s(100.00%)
[...]
   42       1.1695       -9.2919      10.4614        -9.7798      10.9493
   62     200.0079       -0.0068     200.0147         0.0067     200.0011
   67       2.1867       -0.3340       2.5206         1.1661       1.0206
 Sum      197.9899      -43.2069     241.1968       -44.4821     242.4719

 Contributions to Isotropic shielding for atom   18 (  -361.6156 ppm):
                         Standard Origin              Atomic Origin
 NLMO      Total    Paramagnetic  Diamagnetic   Paramagnetic  Diamagnetic
    3      -0.5053       -0.4926      -0.0127        -1.1659       0.6606
    4       0.1392       -1.0204       1.1596        -0.8421       0.9812
    8       0.2882       -0.2520       0.5402        -0.7519       1.0402
   13       0.8449       -0.1720       1.0169        -0.6271       1.4719
   15     -10.7379      -10.8554       0.1175       -11.4722       0.7343
   16     -10.6618      -11.0566       0.3947       -11.4447       0.7829
   17    -118.4932     -129.1475      10.6543      -127.9542       9.4610
   18     -27.0610      -51.4339      24.3729       -51.9949      24.9338
   20      -1.2262       -1.3807       0.1545        -1.3009       0.0748
   24      -0.2533       -0.5333       0.2800        -1.3112       1.0579
   43      -0.4227       -1.8847       1.4620        -1.3841       0.9615
   45      -0.3506       -1.6187       1.2681        -1.3228       0.9722
   63     271.9263       -0.0058     271.9321        -0.0058     271.9321
   68     -35.4901      -70.6343      35.1443       -70.5468      35.0568
   69    -429.2775     -466.0979      36.8203      -468.9678      39.6903
 Sum     -361.2810     -746.5857     385.3048      -751.0924     389.8114

 Contributions to Isotropic shielding for atom   19 (   218.0296 ppm):
                         Standard Origin              Atomic Origin
 NLMO      Total    Paramagnetic  Diamagnetic   Paramagnetic  Diamagnetic
    1      -1.9524       -1.3504      -0.6020        -2.4421       0.4897
    2      -0.8924       -0.6375      -0.2549        -2.5460       1.6536
    3      -1.0964       -1.5166       0.4201        -1.3977       0.3013
    4       3.9216      -11.4285      15.3501        -3.0291       6.9507
    6      -0.6405       -1.4446       0.8041        -1.6775       1.0370
    8       0.8065       -0.2551       1.0616        -0.3773       1.1839
   15      -0.4047        0.0882      -0.4929        -1.2637       0.8591
   17      -0.4349       -0.3172      -0.1177        -1.1718       0.7369
   18       0.2841        0.2382       0.0459        -1.2058       1.4898
   43       7.1093       -3.3096      10.4189        -4.3454      11.4547
   44       3.9684        5.1043      -1.1359        -7.2105      11.1788
   45       6.8783       -5.9716      12.8499        -4.5494      11.4278
   64     200.0789       -0.0038     200.0827         0.0035     200.0754
 Sum      217.6259      -20.8040     238.4299       -31.2129     248.8387

 Contributions to Isotropic shielding for atom   20 (    30.5353 ppm):
                         Standard Origin              Atomic Origin
 NLMO      Total    Paramagnetic  Diamagnetic   Paramagnetic  Diamagnetic
   16       1.6000        1.6008      -0.0008         0.8005       0.7995
   17      -0.7193       -0.8273       0.1081        -1.6439       0.9246
   18       0.3236       -0.2024       0.5260        -1.3222       1.6458
   20       1.2440        1.3531      -0.1091         0.4803       0.7637
   23       1.2175        1.2027       0.0148         0.3825       0.8350
   24      25.6893        0.0447      25.6445         0.4508      25.2384
   31       0.1077       -0.2659       0.3736        -0.9077       1.0154
   36      -0.0867       -1.2336       1.1469        -0.9090       0.8223
 Sum       29.3760        1.6722      27.7039        -2.6687      32.0447

 Contributions to Isotropic shielding for atom   21 (    31.1890 ppm):
                         Standard Origin              Atomic Origin
 NLMO      Total    Paramagnetic  Diamagnetic   Paramagnetic  Diamagnetic
   13      -0.0691       -0.4531       0.3840        -1.3660       1.2968
   19       0.8363        0.6135       0.2228        -0.5376       1.3739
   21       0.4172        1.2744      -0.8572        -0.7589       1.1761
   22      26.4513        0.4069      26.0444         0.8826      25.5687
   24       0.2072        0.0009       0.2063        -0.8067       1.0139
   26       0.2230       -0.6785       0.9015        -0.8175       1.0405
   65       0.7342        0.0797       0.6545         1.0175      -0.2833
 Sum       28.8001        1.2438      27.5563        -2.3866      31.1867

 Contributions to Isotropic shielding for atom   22 (    32.5876 ppm):
                         Standard Origin              Atomic Origin
 NLMO      Total    Paramagnetic  Diamagnetic   Paramagnetic  Diamagnetic
   13      -0.0418       -0.5821       0.5403        -1.2421       1.2002
   19       0.0852       -0.4751       0.5603        -1.0378       1.1229
   23       1.1944       -0.6395       1.8339         0.3751       0.8194
   31       0.6847        1.3200      -0.6353         0.2161       0.4685
   34      26.3502        0.3611      25.9891         0.4875      25.8627
   37       0.1194       -1.0333       1.1527        -0.8726       0.9919
   38       0.1959       -1.2930       1.4889        -0.6974       0.8933
   42       0.1521       -1.1023       1.2544        -0.6158       0.7680
 Sum       28.7401       -3.4442      32.1842        -3.3869      32.1270

 Contributions to Isotropic shielding for atom   23 (    25.8927 ppm):
                         Standard Origin              Atomic Origin
 NLMO      Total    Paramagnetic  Diamagnetic   Paramagnetic  Diamagnetic
    1      -1.4769       -2.6507       1.1739        -2.0553       0.5784
    2       0.7374        1.5192      -0.7818        -2.6209       3.3583
    4      -0.6831        0.6676      -1.3507        -1.7625       1.0794
    5      -1.9795       -1.3500      -0.6294        -2.6830       0.7035
    6      27.0234        0.9555      26.0679         1.5472      25.4762
    8       1.0037        0.1973       0.8064         0.1307       0.8730
    9      -0.0874       -0.0956       0.0083        -1.1920       1.1046
   13       0.5975        0.8134      -0.2159        -0.6571       1.2546
   44      -0.1204       -1.4639       1.3435        -0.9012       0.7808
 Sum       25.0147       -1.4073      26.4221       -10.1940      35.2087

 Contributions to Isotropic shielding for atom   24 (    25.3082 ppm):
                         Standard Origin              Atomic Origin
 NLMO      Total    Paramagnetic  Diamagnetic   Paramagnetic  Diamagnetic
    2       1.1364        0.6718       0.4646         0.0738       1.0626
    5      -2.0633       -1.8966      -0.1668        -2.8017       0.7383
    6      -0.0994       -0.0484      -0.0511        -1.2292       1.1298
    7      -1.8393       -2.6963       0.8570        -2.5581       0.7188
    8       0.6182        1.1927      -0.5745        -2.2055       2.8237
    9      26.8784        1.1157      25.7628         1.5849      25.2935
   11      -0.1109        0.5782      -0.6891        -1.2187       1.1077
   13       0.4676        0.7198      -0.2522        -0.9073       1.3748
 Sum       24.9876       -0.3631      25.3507        -9.2616      34.2492

 Contributions to Isotropic shielding for atom   25 (    25.7286 ppm):
                         Standard Origin              Atomic Origin
 NLMO      Total    Paramagnetic  Diamagnetic   Paramagnetic  Diamagnetic
    2       1.2004       -0.4563       1.6566        -0.0306       1.2309
    7      -1.7689       -1.0094      -0.7594        -2.4500       0.6811
    8       0.3422       -0.0992       0.4414        -3.0603       3.4026
    9      -0.0535       -1.0252       0.9717        -1.1499       1.0964
   10      -0.8840       -2.4680       1.5840        -1.4409       0.5569
   11      26.5279        1.0861      25.4418         1.3028      25.2251
   14      -0.4471        0.2702      -0.7173        -2.0431       1.5960
   65      -0.2372       -0.4227       0.1854         0.7702      -1.0074
 Sum       24.6798       -4.1245      28.8043        -8.1018      32.7816

 Contributions to Isotropic shielding for atom   26 (    31.6737 ppm):
                         Standard Origin              Atomic Origin
 NLMO      Total    Paramagnetic  Diamagnetic   Paramagnetic  Diamagnetic
   21       1.5295        0.0851       1.4444         0.7117       0.8178
   25       1.0569        1.3696      -0.3127         0.1022       0.9546
   26      26.0950        0.0760      26.0190         0.4711      25.6240
   27       1.9460        2.2478      -0.3018         0.1685       1.7775
   28       0.1026       -0.3991       0.5017        -1.0251       1.1277
 Sum       30.7300        3.3793      27.3507         0.4284      30.3016

 Contributions to Isotropic shielding for atom   27 (    31.4685 ppm):
                         Standard Origin              Atomic Origin
 NLMO      Total    Paramagnetic  Diamagnetic   Paramagnetic  Diamagnetic
   19      -0.0900        0.5176      -0.6076        -1.7647       1.6747
   21       1.4405        0.1678       1.2727         0.5730       0.8675
   25       1.0022        1.5669      -0.5648        -0.0465       1.0486
   26       1.9495        2.1748      -0.2253         0.1764       1.7731
   27      26.1056        0.0827      26.0229         0.4701      25.6356
 Sum       30.4077        4.5098      25.8979        -0.5917      30.9995

 Contributions to Isotropic shielding for atom   28 (    31.5054 ppm):
                         Standard Origin              Atomic Origin
 NLMO      Total    Paramagnetic  Diamagnetic   Paramagnetic  Diamagnetic
   25       0.7457        1.4691      -0.7234        -0.3223       1.0680
   26       0.1639        0.3185      -0.1546        -0.8737       1.0376
   28       0.6212        1.3562      -0.7350        -0.5928       1.2140
   29      26.3874        0.1030      26.2844         0.7509      25.6365
   30       1.6853        1.1978       0.4876        -0.0430       1.7283
   32      -0.2844        0.5659      -0.8503        -1.1398       0.8554
 Sum       29.3191        5.0105      24.3086        -2.2207      31.5398

 Contributions to Isotropic shielding for atom   29 (    32.0716 ppm):
                         Standard Origin              Atomic Origin
 NLMO      Total    Paramagnetic  Diamagnetic   Paramagnetic  Diamagnetic
   19       0.0526        0.0122       0.0403        -1.2454       1.2980
   25       1.2473       -0.4038       1.6511         0.3288       0.9186
   28       1.3191       -0.4394       1.7584         0.6620       0.6571
   29       1.6284        1.9601      -0.3317        -0.1878       1.8162
   30      26.4662        0.5605      25.9057         0.6639      25.8023
   42       0.0752       -0.9973       1.0725        -0.7512       0.8264
 Sum       30.7887        0.6924      30.0963        -0.5297      31.3185

 Contributions to Isotropic shielding for atom   30 (    31.5636 ppm):
                         Standard Origin              Atomic Origin
 NLMO      Total    Paramagnetic  Diamagnetic   Paramagnetic  Diamagnetic
   18       0.0245       -0.2662       0.2906        -1.1534       1.1779
   23      -0.2190        0.1768      -0.3957        -1.1082       0.8892
   33       1.5970       -0.5226       2.1196         0.9782       0.6188
   35       0.5593        2.1471      -1.5877        -0.2889       0.8482
   36      26.0395        0.0715      25.9680         0.4426      25.5969
   37       2.0720        0.8682       1.2038         0.2720       1.8000
   38       0.3101       -0.7930       1.1031        -0.0372       0.3473
   39       0.0134       -1.5267       1.5401        -1.1557       1.1691
 Sum       30.3968        0.1551      30.2417        -2.0507      32.4475

 Contributions to Isotropic shielding for atom   31 (    32.6363 ppm):
                         Standard Origin              Atomic Origin
 NLMO      Total    Paramagnetic  Diamagnetic   Paramagnetic  Diamagnetic
   18      -0.2729       -0.3630       0.0901        -1.2960       1.0231
   33       1.6569       -0.9145       2.5714         0.9773       0.6796
   35       0.6533        1.7184      -1.0651        -0.1889       0.8422
   36       2.0489        1.0856       0.9633         0.2521       1.7968
   37      26.1886        0.2529      25.9357         0.4048      25.7838
   38       0.2401       -0.7681       1.0082         0.0971       0.1430
   40       0.0297       -1.4606       1.4903        -1.0962       1.1259
 Sum       30.5446       -0.4493      30.9939        -0.8498      31.3944

 Contributions to Isotropic shielding for atom   32 (    31.7725 ppm):
                         Standard Origin              Atomic Origin
 NLMO      Total    Paramagnetic  Diamagnetic   Paramagnetic  Diamagnetic
   35       1.2616        0.0634       1.1982         0.3413       0.9203
   36      -0.1666        0.9228      -1.0894        -1.3594       1.1928
   38       0.7762        1.4578      -0.6817        -0.0265       0.8027
   39      26.2998       -0.2242      26.5240         0.5662      25.7336
   40       1.9193        2.6124      -0.6931         0.1427       1.7766
   41      -0.0422       -0.0228      -0.0194        -1.1896       1.1474
 Sum       30.0481        4.8096      25.2385        -1.5253      31.5735

 Contributions to Isotropic shielding for atom   33 (    32.2345 ppm):
                         Standard Origin              Atomic Origin
 NLMO      Total    Paramagnetic  Diamagnetic   Paramagnetic  Diamagnetic
   31      -0.2157        0.3498      -0.5655        -1.1097       0.8940
   32       0.2786       -0.7384       1.0170         0.0291       0.2495
   35       1.4890       -0.7855       2.2745         0.6149       0.8741
   37      -0.0912        0.5772      -0.6685        -1.1900       1.0988
   39       1.8786        2.9241      -1.0455         0.0798       1.7988
   40      26.3800        0.0611      26.3189         0.5081      25.8719
   42      -0.1024       -0.2256       0.1232        -1.2425       1.1401
 Sum       29.6168        2.1628      27.4540        -2.3104      31.9272

 Contributions to Isotropic shielding for atom   34 (    31.5201 ppm):
                         Standard Origin              Atomic Origin
 NLMO      Total    Paramagnetic  Diamagnetic   Paramagnetic  Diamagnetic
   32       1.0840        0.2609       0.8231        -0.0769       1.1608
   38       0.4155        1.7516      -1.3361        -0.4636       0.8791
   39       0.0153       -0.0374       0.0527        -1.1061       1.1214
   41      26.3693        0.1554      26.2139         0.7888      25.5806
   42       1.5141        1.4994       0.0147        -0.1898       1.7039
 Sum       29.3982        3.6299      25.7683        -1.0476      30.4458

 Contributions to Isotropic shielding for atom   35 (    32.3732 ppm):
                         Standard Origin              Atomic Origin
 NLMO      Total    Paramagnetic  Diamagnetic   Paramagnetic  Diamagnetic
   28      -0.2904        0.4648      -0.7552        -1.0748       0.7844
   32       1.6574       -1.5713       3.2287         1.0524       0.6050
   35       0.2926       -0.8615       1.1541        -0.1008       0.3934
   40      -0.0354       -0.6710       0.6356        -1.1742       1.1389
   41       1.6070        2.2204      -0.6134        -0.2499       1.8570
   42      26.6919        0.5407      26.1512         0.7558      25.9361
 Sum       29.9232        0.1222      29.8010        -0.7915      30.7147

 Contributions to Isotropic shielding for atom   36 (    31.0085 ppm):
                         Standard Origin              Atomic Origin
 NLMO      Total    Paramagnetic  Diamagnetic   Paramagnetic  Diamagnetic
    2      -0.7974       -0.3628      -0.4346        -1.6804       0.8831
    4       1.8057       -0.5395       2.3452         0.9364       0.8693
    8       0.5521       -0.1207       0.6728        -0.5401       1.0922
   15      -0.3465        0.2268      -0.5732        -1.2555       0.9091
   18       0.1496        0.2815      -0.1318        -1.2080       1.3576
   43      25.7274        0.2084      25.5191         0.3580      25.3695
   44       1.7900        2.6800      -0.8900        -0.1010       1.8910
   45       2.2244        0.3847       1.8397         0.3974       1.8271
 Sum       31.1055        2.7583      28.3472        -3.0933      34.1988

 Contributions to Isotropic shielding for atom   37 (    30.9892 ppm):
                         Standard Origin              Atomic Origin
 NLMO      Total    Paramagnetic  Diamagnetic   Paramagnetic  Diamagnetic
    1      -1.0084        0.2571      -1.2655        -1.9203       0.9119
    2      -0.7423        0.1369      -0.8792        -2.3514       1.6091
    4       1.0646        0.7139       0.3507         0.3054       0.7592
    6      -0.0210       -1.2579       1.2369        -0.9573       0.9364
   18       0.0814        0.0961      -0.0147        -0.9338       1.0152
   43       2.0418        2.4715      -0.4297         0.0542       1.9876
   44      26.2707       -0.1447      26.4153         0.5252      25.7455
   45       2.0989        2.0432       0.0557         0.1322       1.9667
 Sum       29.7857        4.3162      25.4695        -5.1458      34.9315

 Contributions to Isotropic shielding for atom   38 (    30.9322 ppm):
                         Standard Origin              Atomic Origin
 NLMO      Total    Paramagnetic  Diamagnetic   Paramagnetic  Diamagnetic
    2      -0.7909       -0.5280      -0.2629        -1.7249       0.9340
    4       1.9118       -0.9069       2.8186         1.0388       0.8730
    8       0.5101       -0.2187       0.7288        -0.5693       1.0794
   15      -0.2925        0.1655      -0.4580        -1.1983       0.9058
   18       0.1234        0.0675       0.0560        -1.1660       1.2895
   43       2.1898        0.5391       1.6508         0.3899       1.7999
   44       1.7816        2.3561      -0.5745        -0.0860       1.8677
   45      25.6957        0.2814      25.4142         0.3544      25.3412
 Sum       31.1290        1.7560      29.3730        -2.9615      34.0905
 
 1\1\GINC-GNOSIE-MM\SP\RHF\STO-3G\C16H19N1O2\MBENIDD\30-Apr-2026\0\\# n
 mr=giao hf/sto-3g pop=nbo\\Title Card Required\\0,1\C,0,0.,0.,0.\C,0,1
 .4075,0.,0.\C,0,2.1271,1.1938,0.\C,0,1.4506,2.408,0.0108\C,0,0.056,2.4
 291,0.0303\C,0,-0.6782,1.2365,0.0028\C,0,-2.1542,1.3462,-0.0671\O,0,-0
 .5063,3.6768,0.0383\C,0,-1.8099,3.7005,0.6362\C,0,-2.7606,2.7276,-0.05
 91\C,0,-2.3239,5.1444,0.5288\C,0,-2.6631,5.5274,-0.9179\N,0,-3.6117,4.
 5578,-1.4489\C,0,-3.0518,3.1988,-1.4798\C,0,-4.1587,2.4594,-2.2187\C,0
 ,-4.6646,3.483,-3.2382\C,0,-4.057,4.8196,-2.8131\O,0,-2.8704,0.3524,-0
 .1684\C,0,-0.7066,-1.3286,-0.0178\H,0,-3.6875,2.6778,0.529\H,0,-1.7016
 ,3.4472,1.7001\H,0,-2.1397,3.168,-2.0947\H,0,1.9563,-0.9406,-0.0077\H,
 0,3.2141,1.1752,-0.0078\H,0,2.0086,3.3408,0.0124\H,0,-3.2185,5.2577,1.
 1544\H,0,-1.5665,5.8409,0.9076\H,0,-3.1088,6.5288,-0.921\H,0,-1.7503,5
 .5721,-1.525\H,0,-4.9752,2.1763,-1.5428\H,0,-3.7955,1.55,-2.708\H,0,-5
 .7595,3.5179,-3.2254\H,0,-4.3463,3.2193,-4.2525\H,0,-4.7928,5.6285,-2.
 8567\H,0,-3.2189,5.0737,-3.4739\H,0,-1.3778,-1.4193,0.8419\H,0,0.0034,
 -2.1607,0.0473\H,0,-1.2641,-1.4539,-0.9512\\Version=EM64L-G16RevB.01\S
 tate=1-A\HF=-811.0643681\RMSD=5.374e-09\Dipole=0.3333829,0.2773671,-0.
 0243044\Quadrupole=-1.0502514,-0.9108181,1.9610695,-3.1154384,0.580982
 ,-0.1359216\PG=C01 [X(C16H19N1O2)]\\@


 IF IT HAPPENS, IT MUST BE POSSIBLE.

 -- THE UNNAMED LAW FROM PAUL DICKSON'S 
    "THE OFFICIAL RULES"
 Job cpu time:       0 days  0 hours  3 minutes 36.4 seconds.
 Elapsed time:       0 days  0 hours  1 minutes 55.4 seconds.
 File lengths (MBytes):  RWF=     14 Int=      0 D2E=      0 Chk=      2 Scr=      1
 Normal termination of Gaussian 16 at Thu Apr 30 09:22:31 2026.
