 Entering Gaussian System, Link 0=g16
 Input=3_elaeocarpine_c_2.gjf
 Output=3_elaeocarpine_c_2.log
 Initial command:
 /opt/gaussian/g16/l1.exe "/home/mbenidd/Bureau/Elaeocarpines/HF_NMR/3/3_elaeocarpine_c2/Gau-9923.inp" -scrdir="/home/mbenidd/Bureau/Elaeocarpines/HF_NMR/3/3_elaeocarpine_c2/"
 Entering Link 1 = /opt/gaussian/g16/l1.exe PID=      9925.
  
 Copyright (c) 1988-2017, Gaussian, Inc.  All Rights Reserved.
  
 This is part of the Gaussian(R) 16 program.  It is based on
 the Gaussian(R) 09 system (copyright 2009, Gaussian, Inc.),
 the Gaussian(R) 03 system (copyright 2003, Gaussian, Inc.),
 the Gaussian(R) 98 system (copyright 1998, Gaussian, Inc.),
 the Gaussian(R) 94 system (copyright 1995, Gaussian, Inc.),
 the Gaussian 92(TM) system (copyright 1992, Gaussian, Inc.),
 the Gaussian 90(TM) system (copyright 1990, Gaussian, Inc.),
 the Gaussian 88(TM) system (copyright 1988, Gaussian, Inc.),
 the Gaussian 86(TM) system (copyright 1986, Carnegie Mellon
 University), and the Gaussian 82(TM) system (copyright 1983,
 Carnegie Mellon University). Gaussian is a federally registered
 trademark of Gaussian, Inc.
  
 This software contains proprietary and confidential information,
 including trade secrets, belonging to Gaussian, Inc.
  
 This software is provided under written license and may be
 used, copied, transmitted, or stored only in accord with that
 written license.
  
 The following legend is applicable only to US Government
 contracts under FAR:
  
                    RESTRICTED RIGHTS LEGEND
  
 Use, reproduction and disclosure by the US Government is
 subject to restrictions as set forth in subparagraphs (a)
 and (c) of the Commercial Computer Software - Restricted
 Rights clause in FAR 52.227-19.
  
 Gaussian, Inc.
 340 Quinnipiac St., Bldg. 40, Wallingford CT 06492
  
  
 ---------------------------------------------------------------
 Warning -- This program may not be used in any manner that
 competes with the business of Gaussian, Inc. or will provide
 assistance to any competitor of Gaussian, Inc.  The licensee
 of this program is prohibited from giving any competitor of
 Gaussian, Inc. access to this program.  By using this program,
 the user acknowledges that Gaussian, Inc. is engaged in the
 business of creating and licensing software in the field of
 computational chemistry and represents and warrants to the
 licensee that it is not a competitor of Gaussian, Inc. and that
 it will not use this program in any manner prohibited above.
 ---------------------------------------------------------------
  

 Cite this work as:
 Gaussian 16, Revision B.01,
 M. J. Frisch, G. W. Trucks, H. B. Schlegel, G. E. Scuseria, 
 M. A. Robb, J. R. Cheeseman, G. Scalmani, V. Barone, 
 G. A. Petersson, H. Nakatsuji, X. Li, M. Caricato, A. V. Marenich, 
 J. Bloino, B. G. Janesko, R. Gomperts, B. Mennucci, H. P. Hratchian, 
 J. V. Ortiz, A. F. Izmaylov, J. L. Sonnenberg, D. Williams-Young, 
 F. Ding, F. Lipparini, F. Egidi, J. Goings, B. Peng, A. Petrone, 
 T. Henderson, D. Ranasinghe, V. G. Zakrzewski, J. Gao, N. Rega, 
 G. Zheng, W. Liang, M. Hada, M. Ehara, K. Toyota, R. Fukuda, 
 J. Hasegawa, M. Ishida, T. Nakajima, Y. Honda, O. Kitao, H. Nakai, 
 T. Vreven, K. Throssell, J. A. Montgomery, Jr., J. E. Peralta, 
 F. Ogliaro, M. J. Bearpark, J. J. Heyd, E. N. Brothers, K. N. Kudin, 
 V. N. Staroverov, T. A. Keith, R. Kobayashi, J. Normand, 
 K. Raghavachari, A. P. Rendell, J. C. Burant, S. S. Iyengar, 
 J. Tomasi, M. Cossi, J. M. Millam, M. Klene, C. Adamo, R. Cammi, 
 J. W. Ochterski, R. L. Martin, K. Morokuma, O. Farkas, 
 J. B. Foresman, and D. J. Fox, Gaussian, Inc., Wallingford CT, 2016.
 
 ******************************************
 Gaussian 16:  EM64L-G16RevB.01 20-Dec-2017
                18-May-2026 
 ******************************************
 %nprocshared=4
 Will use up to    4 processors via shared memory.
 ----------------------------
 # nmr=giao hf/sto-3g pop=nbo
 ----------------------------
 1/38=1,172=1/1;
 2/12=2,17=6,18=5,40=1/2;
 3/6=3,11=9,25=1,30=1/1,2,3,8;
 4//1;
 5/5=2,38=5/2;
 8/6=1,10=90,11=11/1;
 10/13=100,45=16/2;
 6/7=2,8=2,9=2,10=2,28=1,40=1,64=1/1,7;
 99/9=1/99;
 -------------------
 Title Card Required
 -------------------
 Symbolic Z-matrix:
 Charge =  0 Multiplicity = 1
 C                     0.        0.        0. 
 C                     1.4079    0.        0. 
 C                     2.1268    1.193     0. 
 C                     1.4482    2.4055    0.0138 
 C                     0.0522    2.4277    0.0297 
 C                    -0.6824    1.2365   -0.0031 
 C                    -2.1625    1.3408   -0.0863 
 O                    -0.4979    3.6789    0.0703 
 C                    -1.8279    3.719     0.5866 
 C                    -2.7649    2.7367   -0.1227 
 C                    -1.8461    3.603     2.1243 
 C                    -3.2723    3.6202    2.679 
 N                    -4.0652    2.6177    1.9805 
 C                    -4.1387    2.8814    0.5369 
 C                    -5.3056    2.0234    0.0532 
 C                    -6.0671    1.6578    1.3291 
 C                    -5.4508    2.5182    2.4245 
 O                    -2.8429    0.3291   -0.2289 
 C                    -0.7013   -1.3321   -0.0098 
 H                    -2.834     3.0009   -1.1865 
 H                    -2.1842    4.7313    0.3497 
 H                    -4.4596    3.9256    0.3878 
 H                     1.9564   -0.9407   -0.0056 
 H                     3.2136    1.1756   -0.0055 
 H                     2.0058    3.3386    0.024 
 H                    -1.3402    2.6845    2.4474 
 H                    -1.2641    4.4245    2.5597 
 H                    -3.2387    3.3965    3.7515 
 H                    -3.7046    4.6226    2.5665 
 H                    -5.0215    1.122    -0.4923 
 H                    -5.9498    2.6084   -0.6141 
 H                    -7.1433    1.8285    1.2281 
 H                    -5.914     0.5947    1.5526 
 H                    -5.9403    3.4996    2.4569 
 H                    -5.5399    2.0449    3.407 
 H                    -1.3889   -1.4123    0.838 
 H                     0.0106   -2.1598    0.0852 
 H                    -1.2382   -1.4763   -0.9524 
 
                          Input orientation:                          
 ---------------------------------------------------------------------
 Center     Atomic      Atomic             Coordinates (Angstroms)
 Number     Number       Type             X           Y           Z
 ---------------------------------------------------------------------
      1          6           0        0.000000    0.000000    0.000000
      2          6           0        1.407900    0.000000    0.000000
      3          6           0        2.126800    1.193000    0.000000
      4          6           0        1.448200    2.405500    0.013800
      5          6           0        0.052200    2.427700    0.029700
      6          6           0       -0.682400    1.236500   -0.003100
      7          6           0       -2.162500    1.340800   -0.086300
      8          8           0       -0.497900    3.678900    0.070300
      9          6           0       -1.827900    3.719000    0.586600
     10          6           0       -2.764900    2.736700   -0.122700
     11          6           0       -1.846100    3.603000    2.124300
     12          6           0       -3.272300    3.620200    2.679000
     13          7           0       -4.065200    2.617700    1.980500
     14          6           0       -4.138700    2.881400    0.536900
     15          6           0       -5.305600    2.023400    0.053200
     16          6           0       -6.067100    1.657800    1.329100
     17          6           0       -5.450800    2.518200    2.424500
     18          8           0       -2.842900    0.329100   -0.228900
     19          6           0       -0.701300   -1.332100   -0.009800
     20          1           0       -2.834000    3.000900   -1.186500
     21          1           0       -2.184200    4.731300    0.349700
     22          1           0       -4.459600    3.925600    0.387800
     23          1           0        1.956400   -0.940700   -0.005600
     24          1           0        3.213600    1.175600   -0.005500
     25          1           0        2.005800    3.338600    0.024000
     26          1           0       -1.340200    2.684500    2.447400
     27          1           0       -1.264100    4.424500    2.559700
     28          1           0       -3.238700    3.396500    3.751500
     29          1           0       -3.704600    4.622600    2.566500
     30          1           0       -5.021500    1.122000   -0.492300
     31          1           0       -5.949800    2.608400   -0.614100
     32          1           0       -7.143300    1.828500    1.228100
     33          1           0       -5.914000    0.594700    1.552600
     34          1           0       -5.940300    3.499600    2.456900
     35          1           0       -5.539900    2.044900    3.407000
     36          1           0       -1.388900   -1.412300    0.838000
     37          1           0        0.010600   -2.159800    0.085200
     38          1           0       -1.238200   -1.476300   -0.952400
 ---------------------------------------------------------------------
                    Distance matrix (angstroms):
                    1          2          3          4          5
     1  C    0.000000
     2  C    1.407900   0.000000
     3  C    2.438550   1.392863   0.000000
     4  C    2.807829   2.405877   1.389548   0.000000
     5  C    2.428443   2.780743   2.414401   1.396267   0.000000
     6  C    1.412307   2.428641   2.809538   2.430289   1.399882
     7  C    2.545898   3.814833   4.292713   3.765735   2.469758
     8  O    3.713105   4.143829   3.615756   2.326380   1.367392
     9  C    4.185245   4.964420   4.729104   3.575781   2.347844
    10  C    3.892204   4.991677   5.130964   4.228302   2.838091
    11  C    4.571908   5.299318   5.109274   4.091531   3.061409
    12  C    5.566941   6.495164   6.497586   5.555349   4.415104
    13  N    5.224996   6.381971   6.655300   5.857518   4.560121
    14  C    5.071446   6.273396   6.511179   5.631480   4.245791
    15  C    5.678589   7.011994   7.478834   6.764715   5.373084
    16  C    6.428414   7.771128   8.313997   7.666081   6.302937
    17  C    6.475396   7.698136   8.065629   7.308924   6.002188
    18  O    2.871025   4.269661   5.049419   4.773246   3.585052
    19  C    1.505459   2.494657   3.791355   4.311677   3.834764
    20  H    4.294734   5.329812   5.411638   4.486921   3.183999
    21  H    5.222855   5.950687   5.588075   4.326258   3.226524
    22  H    5.953886   7.070239   7.141299   6.111684   4.767419
    23  H    2.170818   1.088944   2.140501   3.384627   3.869540
    24  H    3.421884   2.154674   1.086953   2.151665   3.400506
    25  H    3.894876   3.391800   2.149143   1.087059   2.155533
    26  H    3.872008   4.555037   4.498269   3.711526   2.801785
    27  H    5.265569   5.767829   5.337870   4.232557   3.481488
    28  H    6.008256   6.870288   6.907804   6.076143   5.061659
    29  H    6.455960   7.354795   7.235627   6.163048   5.036515
    30  H    5.168821   6.545107   7.165584   6.615174   5.264957
    31  H    6.525411   7.830493   8.222648   7.427370   6.039134
    32  H    7.475184   8.830326   9.372665   8.696052   7.319182
    33  H    6.143259   7.508292   8.211151   7.736206   6.424535
    34  H    7.319202   8.501741   8.742703   7.858481   6.553650
    35  H    6.817606   8.003823   8.432774   7.776720   6.544026
    36  H    2.150786   3.243289   4.455331   4.827426   4.180397
    37  H    2.161506   2.573799   3.965707   4.786832   4.588024
    38  H    2.149341   3.176220   4.399483   4.818574   4.227395
                    6          7          8          9         10
     6  C    0.000000
     7  C    1.486101   0.000000
     8  O    2.450458   2.874392   0.000000
     9  C    2.796913   2.494110   1.427261   0.000000
    10  C    2.569379   1.520772   2.462576   1.531662   0.000000
    11  C    3.388267   3.178743   2.458113   1.542177   2.577533
    12  C    4.425299   3.751560   3.808682   2.544443   2.981199
    13  N    4.157610   3.085839   4.183376   2.856804   2.475559
    14  C    3.865657   2.582091   3.756214   2.458422   1.530796
    15  C    4.690028   3.219391   5.084776   3.905633   2.644786
    16  C    5.563025   4.165303   6.056848   4.771862   3.765139
    17  C    5.502148   4.301547   5.605417   4.236178   3.708103
    18  O    2.354171   1.227524   4.099964   3.631348   2.411203
    19  C    2.568678   3.047188   5.015766   5.209466   4.563587
    20  H    3.023727   2.101734   2.737991   2.161432   1.098293
    21  H    3.820144   3.418488   2.007291   1.099010   2.130447
    22  H    4.653096   3.490362   3.982051   2.647272   2.132159
    23  H    3.421034   4.709256   5.231640   6.031951   5.985621
    24  H    3.896477   5.379244   4.477442   5.677692   6.180067
    25  H    3.412620   4.623645   2.527145   3.893389   4.810757
    26  H    2.921362   2.983512   2.710886   2.184174   2.939032
    27  H    4.131545   4.161447   2.709261   2.169960   3.506614
    28  H    5.029641   4.484732   4.598148   3.480080   3.958440
    29  H    5.215574   4.492842   4.171871   2.873761   3.416351
    30  H    4.368091   2.895961   5.226587   4.255293   2.799304
    31  H    5.477311   4.028526   5.597999   4.434543   3.225139
    32  H    6.603752   5.174347   6.994700   5.677939   4.671175
    33  H    5.495612   4.161299   6.406531   5.233605   4.160724
    34  H    6.230468   5.039847   5.945395   4.523051   4.161672
    35  H    5.989791   4.909759   6.263009   4.953404   4.542906
    36  H    2.867531   3.005386   5.225281   5.156177   4.475547
    37  H    3.467405   4.123830   5.860820   6.179949   5.632258
    38  H    2.927348   3.088772   5.307546   5.450450   4.557256
                   11         12         13         14         15
    11  C    0.000000
    12  C    1.530371   0.000000
    13  N    2.432262   1.456571   0.000000
    14  C    2.880375   2.425916   1.469327   0.000000
    15  C    4.330442   3.684957   2.367756   1.527018   0.000000
    16  C    4.715187   3.672077   2.313727   2.417334   1.530185
    17  C    3.776344   2.454595   1.458398   2.327349   2.426721
    18  O    4.153262   4.412664   3.407808   2.963070   3.002520
    19  C    5.497287   6.193946   5.556801   5.465179   5.697625
    20  H    3.507117   3.939255   3.419442   2.164863   2.932775
    21  H    2.129924   2.800740   3.265727   2.697637   4.142918
    22  H    3.154344   2.598567   2.098296   1.102525   2.108563
    23  H    6.296085   7.439636   7.270933   7.214776   7.843850
    24  H    6.002406   7.433001   7.681457   7.567051   8.561482
    25  H    4.395259   5.914953   6.419083   6.182797   7.428807
    26  H    1.097256   2.159209   2.765517   3.394169   4.679064
    27  H    1.096886   2.166564   3.383217   3.838776   5.327433
    28  H    2.151687   1.096096   2.103823   3.377718   4.453639
    29  H    2.165444   1.097427   2.119682   2.709150   3.954203
    30  H    4.804698   4.399755   3.044071   2.221278   1.091240
    31  H    5.032735   4.363170   3.206829   2.163195   1.096589
    32  H    5.657946   4.505546   3.265523   3.257910   2.189867
    33  H    5.091613   4.171451   2.773750   3.067953   2.158596
    34  H    4.108989   2.679943   2.126195   2.704503   2.891329
    35  H    4.209175   2.855445   2.130198   3.301601   3.362043
    36  H    5.197772   5.680012   4.970793   5.107634   5.268822
    37  H    6.388672   7.135379   6.559635   6.544801   6.764774
    38  H    5.969499   6.580193   5.775350   5.442469   5.459201
                   16         17         18         19         20
    16  C    0.000000
    17  C    1.523160   0.000000
    18  O    3.819460   4.316692   0.000000
    19  C    6.286809   6.580910   2.719199   0.000000
    20  H    4.311044   4.485528   2.838238   4.970706   0.000000
    21  H    5.048023   4.457946   4.488656   6.252444   2.403421
    22  H    2.934795   2.666721   3.991096   6.475053   2.444599
    23  H    8.538746   8.528540   4.969460   2.686369   6.314956
    24  H    9.388560   9.098313   6.119449   4.649196   6.426503
    25  H    8.348658   7.876315   5.712350   5.398608   5.000302
    26  H    4.964705   4.114026   3.868927   4.751747   3.941672
    27  H    5.677835   4.602251   5.200115   6.329101   4.304095
    28  H    4.109860   2.725019   5.040752   6.553277   4.970324
    29  H    3.987807   2.738225   5.195280   7.149516   4.180056
    30  H    2.167454   3.262115   2.333317   4.991948   2.966030
    31  H    2.166432   3.080621   3.872521   6.590863   3.192163
    32  H    1.094324   2.184403   4.781683   7.281563   5.076897
    33  H    1.097075   2.162086   3.560329   5.772858   4.772721
    34  H    2.163386   1.097181   5.182613   7.541688   4.813747
    35  H    2.178406   1.094193   4.841234   6.818409   5.416279
    36  H    5.617139   5.870677   2.506963   1.094528   5.065891
    37  H    7.284215   7.561937   3.799440   1.095862   6.028416
    38  H    6.192423   6.716062   2.521504   1.094326   4.758855
                   21         22         23         24         25
    21  H    0.000000
    22  H    2.414135   0.000000
    23  H    7.031528   8.062301   0.000000
    24  H    6.473439   8.160587   2.461560   0.000000
    25  H    4.427391   6.502178   4.279687   2.477543   0.000000
    26  H    3.049930   3.938647   5.479677   5.388004   4.182873
    27  H    2.413464   3.895802   6.762969   6.097983   4.277990
    28  H    3.803407   3.617322   7.740553   7.789713   6.434469
    29  H    2.690285   2.408852   8.343436   8.146072   6.381350
    30  H    4.667578   2.991735   7.292647   8.249650   7.386665
    31  H    4.428923   2.226997   8.687599   9.294687   8.014483
    32  H    5.812960   3.508016   9.591404  10.450523   9.350737
    33  H    5.698231   3.816665   8.168760   9.277834   8.519908
    34  H    4.479471   2.579753   9.388186   9.760035   8.311764
    35  H    5.274898   3.717479   8.760945   9.435285   8.369942
    36  H    6.214078   6.174549   3.482111   5.347123   5.895561
    37  H    7.237014   7.556874   2.297953   4.625184   5.849527
    38  H    6.412853   6.430714   3.374725   5.267610   5.887288
                   26         27         28         29         30
    26  H    0.000000
    27  H    1.745280   0.000000
    28  H    2.410793   2.525117   0.000000
    29  H    3.059543   2.448536   1.767656   0.000000
    30  H    4.963387   5.859971   5.134351   4.831634   0.000000
    31  H    5.534165   5.943653   5.199003   4.383394   1.756690
    32  H    5.991277   6.563335   4.906330   4.628495   2.821516
    33  H    5.107600   6.107634   4.454489   4.704617   2.292644
    34  H    4.671766   4.767898   2.997543   2.504295   3.898071
    35  H    4.355158   4.966173   2.690915   3.274035   4.040424
    36  H    4.401853   6.086712   5.919020   6.691053   4.624733
    37  H    5.556248   7.148498   7.407576   8.121608   6.035375
    38  H    5.374133   6.866947   7.062072   7.460722   4.612615
                   31         32         33         34         35
    31  H    0.000000
    32  H    2.329461   0.000000
    33  H    2.958185   1.771649   0.000000
    34  H    3.197713   2.397860   3.042514   0.000000
    35  H    4.081029   2.713913   2.383659   1.783021   0.000000
    36  H    6.251114   6.615745   5.001523   6.889328   5.981872
    37  H    7.664928   8.269888   6.696374   8.547923   7.715044
    38  H    6.244870   7.109605   5.694486   7.648049   7.064548
                   36         37         38
    36  H    0.000000
    37  H    1.756150   0.000000
    38  H    1.797871   1.761615   0.000000
 Stoichiometry    C16H19NO2
 Framework group  C1[X(C16H19NO2)]
 Deg. of freedom   108
 Full point group                 C1      NOp   1
 Largest Abelian subgroup         C1      NOp   1
 Largest concise Abelian subgroup C1      NOp   1
                         Standard orientation:                         
 ---------------------------------------------------------------------
 Center     Atomic      Atomic             Coordinates (Angstroms)
 Number     Number       Type             X           Y           Z
 ---------------------------------------------------------------------
      1          6           0       -2.567446    1.263359    0.325760
      2          6           0       -3.880182    0.802961    0.542414
      3          6           0       -4.231759   -0.518251    0.276221
      4          6           0       -3.271729   -1.403716   -0.198266
      5          6           0       -1.960287   -0.971450   -0.405215
      6          6           0       -1.601573    0.361569   -0.172715
      7          6           0       -0.213901    0.771703   -0.511320
      8          8           0       -1.103208   -1.940959   -0.847059
      9          6           0        0.273269   -1.673373   -0.581010
     10          6           0        0.711861   -0.292929   -1.079008
     11          6           0        0.633505   -1.951462    0.892491
     12          6           0        2.102908   -1.641299    1.186921
     13          7           0        2.404372   -0.292324    0.727590
     14          6           0        2.192000   -0.142560   -0.718574
     15          6           0        2.933070    1.142731   -1.079996
     16          6           0        3.855961    1.401288    0.112853
     17          6           0        3.777797    0.138859    0.961487
     18          8           0        0.115509    1.951402   -0.429976
     19          6           0       -2.271827    2.707937    0.629422
     20          1           0        0.587959   -0.241300   -2.169068
     21          1           0        0.818280   -2.418441   -1.177380
     22          1           0        2.733896   -0.950496   -1.237371
     23          1           0       -4.644295    1.481442    0.918707
     24          1           0       -5.251087   -0.856410    0.443810
     25          1           0       -3.539863   -2.438149   -0.397639
     26          1           0       -0.004954   -1.362554    1.562959
     27          1           0        0.416293   -3.000016    1.130213
     28          1           0        2.272848   -1.720395    2.266871
     29          1           0        2.746415   -2.384024    0.698452
     30          1           0        2.294580    2.008704   -1.262281
     31          1           0        3.527607    0.989891   -1.988662
     32          1           0        4.880442    1.623401   -0.201236
     33          1           0        3.483582    2.262449    0.681454
     34          1           0        4.504294   -0.602760    0.606510
     35          1           0        3.973554    0.349932    2.017132
     36          1           0       -1.445785    2.790975    1.342690
     37          1           0       -3.133620    3.204616    1.089353
     38          1           0       -2.039161    3.253643   -0.290155
 ---------------------------------------------------------------------
 Rotational constants (GHZ):           0.7654818           0.2880504           0.2381010
 Standard basis: STO-3G (5D, 7F)
 There are   114 symmetry adapted cartesian basis functions of A   symmetry.
 There are   114 symmetry adapted basis functions of A   symmetry.
   114 basis functions,   342 primitive gaussians,   114 cartesian basis functions
    69 alpha electrons       69 beta electrons
       nuclear repulsion energy      1506.7830212812 Hartrees.
 NAtoms=   38 NActive=   38 NUniq=   38 SFac= 1.00D+00 NAtFMM=   60 NAOKFM=F Big=F
 Integral buffers will be    131072 words long.
 Raffenetti 1 integral format.
 Two-electron integral symmetry is turned on.
 One-electron integrals computed using PRISM.
 NBasis=   114 RedAO= T EigKep=  1.74D-01  NBF=   114
 NBsUse=   114 1.00D-06 EigRej= -1.00D+00 NBFU=   114
 ExpMin= 1.69D-01 ExpMax= 1.31D+02 ExpMxC= 1.31D+02 IAcc=3 IRadAn=         5 AccDes= 0.00D+00
 Harris functional with IExCor=  205 and IRadAn=       5 diagonalized for initial guess.
 HarFok:  IExCor=  205 AccDes= 0.00D+00 IRadAn=         5 IDoV= 1 UseB2=F ITyADJ=14
 ICtDFT=  3500011 ScaDFX=  1.000000  1.000000  1.000000  1.000000
 FoFCou: FMM=F IPFlag=           0 FMFlag=      100000 FMFlg1=           0
         NFxFlg=           0 DoJE=T BraDBF=F KetDBF=T FulRan=T
         wScrn=  0.000000 ICntrl=       500 IOpCl=  0 I1Cent=   200000004 NGrid=           0
         NMat0=    1 NMatS0=      1 NMatT0=    0 NMatD0=    1 NMtDS0=    0 NMtDT0=    0
 Petite list used in FoFCou.
 Requested convergence on RMS density matrix=1.00D-08 within 128 cycles.
 Requested convergence on MAX density matrix=1.00D-06.
 Requested convergence on             energy=1.00D-06.
 No special actions if energy rises.
 Integral accuracy reduced to 1.0D-05 until final iterations.
 Initial convergence to 1.0D-05 achieved.  Increase integral accuracy.
 SCF Done:  E(RHF) =  -811.059429119     A.U. after   15 cycles
            NFock= 15  Conv=0.48D-08     -V/T= 2.0094
 Range of M.O.s used for correlation:     1   114
 NBasis=   114 NAE=    69 NBE=    69 NFC=     0 NFV=     0
 NROrb=    114 NOA=    69 NOB=    69 NVA=    45 NVB=    45
          Differentiating once with respect to magnetic field using GIAOs.
          Electric field/nuclear overlap derivatives assumed to be zero.
 FoFCou: FMM=F IPFlag=           0 FMFlag=      100000 FMFlg1=           0
         NFxFlg=           0 DoJE=F BraDBF=F KetDBF=T FulRan=T
         wScrn=  0.000000 ICntrl=      6100 IOpCl=  0 I1Cent=           7 NGrid=          38
         NMat0=    1 NMatS0=      1 NMatT0=    0 NMatD0=    1 NMtDS0=    0 NMtDT0=    0
 Symmetry not used in FoFCou.
 FoFJK:  IHMeth= 1 ICntrl=    6127 DoSepK=F KAlg= 0 I1Cent=           0 FoldK=F
 IRaf=         1 NMat=       1 IRICut=       1 DoRegI=T DoRafI=F ISym2E= 0 IDoP0=0 IntGTp=1.
          There are     3 degrees of freedom in the 1st order CPHF.  IDoFFX=0 NUNeed=     3.
      3 vectors produced by pass  0 Test12= 1.04D-13 3.33D-08 XBig12= 2.40D+01 1.45D+00.
 AX will form     3 AO Fock derivatives at one time.
      3 vectors produced by pass  1 Test12= 1.04D-13 3.33D-08 XBig12= 1.47D-01 2.11D-01.
      3 vectors produced by pass  2 Test12= 1.04D-13 3.33D-08 XBig12= 3.72D-03 2.08D-02.
      3 vectors produced by pass  3 Test12= 1.04D-13 3.33D-08 XBig12= 1.11D-04 2.72D-03.
      3 vectors produced by pass  4 Test12= 1.04D-13 3.33D-08 XBig12= 1.63D-06 1.53D-04.
      3 vectors produced by pass  5 Test12= 1.04D-13 3.33D-08 XBig12= 1.78D-08 1.92D-05.
      3 vectors produced by pass  6 Test12= 1.04D-13 3.33D-08 XBig12= 3.07D-10 2.97D-06.
      3 vectors produced by pass  7 Test12= 1.04D-13 3.33D-08 XBig12= 5.20D-12 3.02D-07.
      1 vectors produced by pass  8 Test12= 1.04D-13 3.33D-08 XBig12= 1.05D-13 5.04D-08.
 InvSVY:  IOpt=1 It=  1 EMax= 1.11D-16
 Solved reduced A of dimension    25 with     3 vectors.
 Calculating GIAO nuclear magnetic shielding tensors.
 SCF GIAO Magnetic shielding tensor (ppm):
      1  C    Isotropic =   113.4492   Anisotropy =   169.8156
   XX=    91.8227   YX=   -12.0305   ZX=    33.3850
   XY=    -7.6494   YY=    43.2297   ZY=   -47.6878
   XZ=    34.4074   YZ=   -44.2494   ZZ=   205.2951
   Eigenvalues:    31.0852    82.6027   226.6596
      2  C    Isotropic =   123.9073   Anisotropy =   142.4337
   XX=    84.9696   YX=    33.7899   ZX=    43.6353
   XY=    27.1654   YY=    89.6997   ZY=   -41.4077
   XZ=    43.2691   YZ=   -39.7664   ZZ=   197.0525
   Eigenvalues:    34.9553   117.9034   218.8631
      3  C    Isotropic =   117.4274   Anisotropy =   168.3294
   XX=    38.3332   YX=   -32.4110   ZX=    40.6250
   XY=   -34.2334   YY=   101.4382   ZY=   -25.7384
   XZ=    40.2695   YZ=   -25.0049   ZZ=   212.5107
   Eigenvalues:    19.8285   102.8066   229.6469
      4  C    Isotropic =   130.9967   Anisotropy =   146.1823
   XX=   117.4643   YX=   -21.5212   ZX=    21.7456
   XY=   -25.3390   YY=    60.1126   ZY=   -37.5162
   XZ=    20.9092   YZ=   -29.9186   ZZ=   215.4131
   Eigenvalues:    47.8525   116.6859   228.4515
      5  C    Isotropic =   106.1880   Anisotropy =   133.3199
   XX=    72.5248   YX=    12.6696   ZX=    32.0886
   XY=     2.1595   YY=    67.4073   ZY=   -30.5067
   XZ=    35.5596   YZ=   -33.6931   ZZ=   178.6319
   Eigenvalues:    46.0206    77.4754   195.0680
      6  C    Isotropic =   130.8538   Anisotropy =   150.4942
   XX=    79.2107   YX=   -22.6009   ZX=    39.9841
   XY=   -20.2121   YY=   102.6466   ZY=   -26.0208
   XZ=    40.4161   YZ=   -32.9619   ZZ=   210.7041
   Eigenvalues:    62.9719    98.4062   231.1832
      7  C    Isotropic =    90.7919   Anisotropy =   138.3188
   XX=    -9.2878   YX=    36.2983   ZX=    71.9022
   XY=    35.7537   YY=   126.8077   ZY=   -25.2051
   XZ=    69.1315   YZ=   -22.4947   ZZ=   154.8558
   Eigenvalues:   -45.7056   135.0769   183.0045
      8  O    Isotropic =   340.0198   Anisotropy =    97.6507
   XX=   268.2646   YX=    -4.5437   ZX=    16.5138
   XY=   -41.4117   YY=   350.8850   ZY=    -1.9608
   XZ=    30.4803   YZ=    15.8076   ZZ=   400.9099
   Eigenvalues:   258.1066   356.8326   405.1203
      9  C    Isotropic =   185.8128   Anisotropy =    49.9996
   XX=   217.1611   YX=     8.0977   ZX=     7.1620
   XY=     7.7959   YY=   168.4875   ZY=    -5.5679
   XZ=     6.1788   YZ=    -4.4965   ZZ=   171.7897
   Eigenvalues:   162.8683   175.4242   219.1458
     10  C    Isotropic =   211.5606   Anisotropy =    11.0068
   XX=   214.8293   YX=    -2.5654   ZX=     3.2323
   XY=    -2.6176   YY=   205.8815   ZY=     0.7296
   XZ=     4.9530   YZ=    -1.5897   ZZ=   213.9712
   Eigenvalues:   205.1275   210.6559   218.8985
     11  C    Isotropic =   219.7102   Anisotropy =    13.8037
   XX=   224.3359   YX=     1.6721   ZX=     3.8014
   XY=     4.3374   YY=   213.3102   ZY=    -4.7525
   XZ=     7.7865   YZ=    -5.1106   ZZ=   221.4846
   Eigenvalues:   209.0959   221.1221   228.9127
     12  C    Isotropic =   201.7810   Anisotropy =    40.3007
   XX=   197.8050   YX=    10.4892   ZX=    -6.3163
   XY=    11.3396   YY=   218.6993   ZY=   -12.5452
   XZ=    -4.4187   YZ=   -14.4209   ZZ=   188.8387
   Eigenvalues:   183.5398   193.1551   228.6481
     13  N    Isotropic =   293.2331   Anisotropy =    45.6340
   XX=   294.9894   YX=    35.1696   ZX=    19.2798
   XY=    24.6135   YY=   276.6101   ZY=   -15.3504
   XZ=    22.9097   YZ=   -30.0910   ZZ=   308.0996
   Eigenvalues:   240.4614   315.5821   323.6557
     14  C    Isotropic =   191.6417   Anisotropy =    37.2292
   XX=   181.3541   YX=     2.4139   ZX=     7.9677
   XY=     8.3621   YY=   184.0794   ZY=   -11.4361
   XZ=    17.5925   YZ=    -9.5885   ZZ=   209.4916
   Eigenvalues:   170.1938   188.2701   216.4611
     15  C    Isotropic =   215.7428   Anisotropy =    27.1356
   XX=   215.4174   YX=    16.3148   ZX=     8.5414
   XY=    18.3344   YY=   217.3134   ZY=    -6.9311
   XZ=     8.6208   YZ=    -5.5266   ZZ=   214.4975
   Eigenvalues:   193.6903   219.7049   233.8332
     16  C    Isotropic =   215.7506   Anisotropy =    18.7260
   XX=   210.2418   YX=     8.5451   ZX=    11.5241
   XY=    12.9448   YY=   217.8583   ZY=    -9.6269
   XZ=    12.5379   YZ=    -8.7977   ZZ=   219.1517
   Eigenvalues:   193.6544   225.3628   228.2346
     17  C    Isotropic =   198.5698   Anisotropy =    49.2621
   XX=   218.3566   YX=    21.1790   ZX=    13.9888
   XY=    20.1431   YY=   195.0105   ZY=    -5.7303
   XZ=     7.0409   YZ=    -3.0358   ZZ=   182.3424
   Eigenvalues:   173.1218   191.1764   231.4112
     18  O    Isotropic =  -343.3339   Anisotropy =  1269.0143
   XX=  -371.3774   YX=  -285.7114   ZX=   250.4482
   XY=  -226.6874   YY= -1052.7886   ZY=  -188.5414
   XZ=   230.5972   YZ=  -171.0770   ZZ=   394.1643
   Eigenvalues: -1144.5311  -388.1463   502.6757
     19  C    Isotropic =   217.8027   Anisotropy =    23.2190
   XX=   215.4451   YX=     4.3954   ZX=    -1.2799
   XY=     4.6566   YY=   231.1073   ZY=     5.8601
   XZ=    -2.5731   YZ=     5.4920   ZZ=   206.8557
   Eigenvalues:   204.7800   215.3461   233.2820
     20  H    Isotropic =    31.2233   Anisotropy =    12.9255
   XX=    28.4754   YX=     1.3982   ZX=     2.7207
   XY=     2.1420   YY=    25.6772   ZY=    -2.6726
   XZ=     0.3405   YZ=    -0.3522   ZZ=    39.5173
   Eigenvalues:    24.5433    29.2863    39.8403
     21  H    Isotropic =    30.4087   Anisotropy =     9.7546
   XX=    29.8827   YX=    -2.5513   ZX=    -2.1045
   XY=    -0.8753   YY=    32.5616   ZY=     5.1511
   XZ=    -0.8277   YZ=     5.2283   ZZ=    28.7818
   Eigenvalues:    25.1375    29.1768    36.9118
     22  H    Isotropic =    32.1371   Anisotropy =     8.2231
   XX=    32.2318   YX=    -1.0680   ZX=    -3.7620
   XY=    -0.4358   YY=    33.2619   ZY=     3.5825
   XZ=    -3.2681   YZ=     4.0955   ZZ=    30.9175
   Eigenvalues:    26.8466    31.9454    37.6192
     23  H    Isotropic =    25.8789   Anisotropy =     6.0891
   XX=    28.6797   YX=     1.7734   ZX=    -1.3407
   XY=     1.7897   YY=    27.3299   ZY=     1.1143
   XZ=    -1.4097   YZ=     1.2426   ZZ=    21.6271
   Eigenvalues:    21.0016    26.6967    29.9383
     24  H    Isotropic =    25.2944   Anisotropy =     3.5307
   XX=    26.8822   YX=     0.0865   ZX=    -1.1247
   XY=    -0.2912   YY=    26.9697   ZY=     1.5031
   XZ=    -1.0510   YZ=     1.4970   ZZ=    22.0314
   Eigenvalues:    21.4201    26.8150    27.6482
     25  H    Isotropic =    25.6981   Anisotropy =     7.1703
   XX=    29.9694   YX=     1.5649   ZX=    -1.3251
   XY=     1.1511   YY=    26.1790   ZY=     1.4074
   XZ=    -1.3672   YZ=     1.7622   ZZ=    20.9457
   Eigenvalues:    20.2160    26.3999    30.4783
     26  H    Isotropic =    32.7853   Anisotropy =     8.9542
   XX=    35.8184   YX=    -3.5840   ZX=    -3.9412
   XY=    -3.0132   YY=    27.7200   ZY=     1.9497
   XZ=    -1.2436   YZ=    -0.8223   ZZ=    34.8174
   Eigenvalues:    26.5315    33.0696    38.7548
     27  H    Isotropic =    32.0744   Anisotropy =    15.1950
   XX=    29.3607   YX=     3.0506   ZX=     0.2981
   XY=     3.8378   YY=    38.8761   ZY=    -5.1391
   XZ=     1.1673   YZ=    -6.9310   ZZ=    27.9863
   Eigenvalues:    24.3582    29.6606    42.2044
     28  H    Isotropic =    31.8181   Anisotropy =    13.9247
   XX=    29.0367   YX=     0.9878   ZX=     2.7743
   XY=     1.4999   YY=    27.7036   ZY=    -4.7746
   XZ=     4.1345   YZ=    -4.5520   ZZ=    38.7141
   Eigenvalues:    24.5873    29.7658    41.1013
     29  H    Isotropic =    32.6550   Anisotropy =    11.2747
   XX=    34.1703   YX=    -4.4522   ZX=    -0.2988
   XY=    -4.5022   YY=    36.8304   ZY=     0.5892
   XZ=     0.3199   YZ=    -0.3701   ZZ=    26.9643
   Eigenvalues:    26.9624    30.8312    40.1715
     30  H    Isotropic =    30.8027   Anisotropy =    13.5998
   XX=    30.1621   YX=    -3.8770   ZX=     2.2546
   XY=    -3.5099   YY=    37.0551   ZY=    -3.4726
   XZ=     1.8937   YZ=    -3.9057   ZZ=    25.1911
   Eigenvalues:    23.9460    28.5929    39.8693
     31  H    Isotropic =    31.9103   Anisotropy =    14.4124
   XX=    30.6779   YX=     2.1450   ZX=    -6.0949
   XY=     2.3195   YY=    27.3579   ZY=    -0.8317
   XZ=    -6.2303   YZ=    -0.8188   ZZ=    37.6953
   Eigenvalues:    25.6038    28.6086    41.5186
     32  H    Isotropic =    32.1280   Anisotropy =    15.6717
   XX=    39.6510   YX=     5.7484   ZX=    -2.2518
   XY=     5.7388   YY=    29.1790   ZY=    -1.6514
   XZ=    -1.5835   YZ=    -1.6158   ZZ=    27.5541
   Eigenvalues:    26.1467    27.6616    42.5759
     33  H    Isotropic =    31.6532   Anisotropy =    14.2207
   XX=    27.0815   YX=    -0.3734   ZX=     0.1063
   XY=    -0.7358   YY=    38.4477   ZY=     5.4056
   XZ=     1.2007   YZ=     5.7990   ZZ=    29.4305
   Eigenvalues:    26.0679    27.7581    41.1337
     34  H    Isotropic =    32.4572   Anisotropy =    11.8749
   XX=    38.0793   YX=    -4.5566   ZX=    -0.1113
   XY=    -3.8540   YY=    32.5648   ZY=    -0.9930
   XZ=     0.6115   YZ=    -0.4446   ZZ=    26.7276
   Eigenvalues:    26.6326    30.3653    40.3738
     35  H    Isotropic =    31.7862   Anisotropy =    13.9551
   XX=    29.5991   YX=     2.6475   ZX=     5.8969
   XY=     2.0051   YY=    27.9003   ZY=     1.2937
   XZ=     5.4647   YZ=     1.0384   ZZ=    37.8593
   Eigenvalues:    25.5499    28.7192    41.0896
     36  H    Isotropic =    30.9194   Anisotropy =     9.9528
   XX=    33.9929   YX=     1.8682   ZX=     4.2992
   XY=     0.7172   YY=    29.5752   ZY=     2.4553
   XZ=     3.5366   YZ=     5.7376   ZZ=    29.1900
   Eigenvalues:    24.7903    30.4132    37.5546
     37  H    Isotropic =    30.9541   Anisotropy =    12.3267
   XX=    34.1588   YX=    -2.9564   ZX=    -4.0249
   XY=    -3.6939   YY=    32.5317   ZY=     3.5930
   XZ=    -4.3508   YZ=     3.8343   ZZ=    26.1720
   Eigenvalues:    23.7549    29.9355    39.1720
     38  H    Isotropic =    30.8341   Anisotropy =    11.0848
   XX=    28.6547   YX=     0.5331   ZX=    -3.1618
   XY=     1.3598   YY=    34.0402   ZY=    -3.5176
   XZ=    -2.8588   YZ=    -6.9417   ZZ=    29.8075
   Eigenvalues:    25.0438    29.2346    38.2240
 End of Minotr F.D. properties file   721 does not exist.
 End of Minotr F.D. properties file   722 does not exist.
 End of Minotr F.D. properties file   788 does not exist.

 **********************************************************************

            Population analysis using the SCF Density.

 **********************************************************************

 Orbital symmetries:
       Occupied  (A) (A) (A) (A) (A) (A) (A) (A) (A) (A) (A) (A)
                 (A) (A) (A) (A) (A) (A) (A) (A) (A) (A) (A) (A)
                 (A) (A) (A) (A) (A) (A) (A) (A) (A) (A) (A) (A)
                 (A) (A) (A) (A) (A) (A) (A) (A) (A) (A) (A) (A)
                 (A) (A) (A) (A) (A) (A) (A) (A) (A) (A) (A) (A)
                 (A) (A) (A) (A) (A) (A) (A) (A) (A)
       Virtual   (A) (A) (A) (A) (A) (A) (A) (A) (A) (A) (A) (A)
                 (A) (A) (A) (A) (A) (A) (A) (A) (A) (A) (A) (A)
                 (A) (A) (A) (A) (A) (A) (A) (A) (A) (A) (A) (A)
                 (A) (A) (A) (A) (A) (A) (A) (A) (A)
 The electronic state is 1-A.
 Alpha  occ. eigenvalues --  -20.29899 -20.25827 -15.31533 -11.11304 -11.11102
 Alpha  occ. eigenvalues --  -11.09563 -11.08159 -11.07959 -11.06930 -11.06514
 Alpha  occ. eigenvalues --  -11.05278 -11.04903 -11.03963 -11.03909 -11.03708
 Alpha  occ. eigenvalues --  -11.03676 -11.02580 -11.01906 -11.01584  -1.34415
 Alpha  occ. eigenvalues --   -1.31118  -1.20365  -1.09449  -1.04997  -1.02634
 Alpha  occ. eigenvalues --   -0.98804  -0.97314  -0.95124  -0.91996  -0.87917
 Alpha  occ. eigenvalues --   -0.83707  -0.79857  -0.78311  -0.75869  -0.73884
 Alpha  occ. eigenvalues --   -0.72997  -0.67785  -0.64583  -0.62684  -0.62034
 Alpha  occ. eigenvalues --   -0.61227  -0.60583  -0.58736  -0.56762  -0.56463
 Alpha  occ. eigenvalues --   -0.55568  -0.54231  -0.52656  -0.52228  -0.51555
 Alpha  occ. eigenvalues --   -0.51266  -0.49673  -0.49168  -0.47310  -0.47270
 Alpha  occ. eigenvalues --   -0.45907  -0.45109  -0.44456  -0.43972  -0.43456
 Alpha  occ. eigenvalues --   -0.42433  -0.42170  -0.39510  -0.38120  -0.36425
 Alpha  occ. eigenvalues --   -0.30925  -0.28888  -0.26989  -0.24099
 Alpha virt. eigenvalues --    0.21697   0.27156   0.35051   0.49453   0.52355
 Alpha virt. eigenvalues --    0.53045   0.54583   0.55810   0.57649   0.58563
 Alpha virt. eigenvalues --    0.60650   0.61971   0.63212   0.64311   0.65219
 Alpha virt. eigenvalues --    0.65968   0.66956   0.68607   0.69320   0.69786
 Alpha virt. eigenvalues --    0.70439   0.71328   0.72512   0.73855   0.74027
 Alpha virt. eigenvalues --    0.74421   0.74825   0.75341   0.75940   0.77559
 Alpha virt. eigenvalues --    0.77990   0.78287   0.79022   0.79980   0.80072
 Alpha virt. eigenvalues --    0.82679   0.85095   0.86256   0.87136   0.87578
 Alpha virt. eigenvalues --    0.90435   0.94038   1.01025   1.12265   1.13849
          Condensed to atoms (all electrons):
               1          2          3          4          5          6
     1  C    4.758284   0.505668  -0.028798  -0.010181  -0.028170   0.496324
     2  C    0.505668   4.808232   0.504066  -0.031814  -0.011324  -0.030791
     3  C   -0.028798   0.504066   4.759149   0.509656  -0.029101  -0.009348
     4  C   -0.010181  -0.031814   0.509656   4.808242   0.498505  -0.031845
     5  C   -0.028170  -0.011324  -0.029101   0.498505   4.750753   0.489776
     6  C    0.496324  -0.030791  -0.009348  -0.031845   0.489776   4.873419
     7  C   -0.023024   0.000746   0.000017   0.000793  -0.029328   0.388420
     8  O    0.000247   0.000008   0.000355  -0.027770   0.294243  -0.016787
     9  C    0.000026   0.000000  -0.000020   0.001741  -0.040516  -0.006867
    10  C    0.000574  -0.000006  -0.000000  -0.000031  -0.004942  -0.033491
    11  C   -0.000005   0.000000   0.000001   0.000012  -0.001967  -0.000063
    12  C    0.000000   0.000000  -0.000000   0.000000   0.000002  -0.000004
    13  N    0.000000  -0.000000  -0.000000  -0.000000   0.000001  -0.000004
    14  C   -0.000004   0.000000  -0.000000   0.000000   0.000013   0.000537
    15  C   -0.000000   0.000000   0.000000  -0.000000  -0.000000  -0.000002
    16  C   -0.000000   0.000000  -0.000000   0.000000   0.000000   0.000000
    17  C   -0.000000   0.000000  -0.000000   0.000000  -0.000000   0.000000
    18  O   -0.001184  -0.000004  -0.000000  -0.000002   0.000335  -0.029029
    19  C    0.381371  -0.030491   0.000886   0.000012   0.000714  -0.023810
    20  H   -0.000017   0.000000   0.000000  -0.000002   0.000052   0.000336
    21  H    0.000001   0.000000   0.000000  -0.000039   0.002544  -0.000029
    22  H    0.000000  -0.000000  -0.000000  -0.000000  -0.000001  -0.000019
    23  H   -0.025012   0.394282  -0.026913   0.001433   0.000048   0.001245
    24  H    0.001325  -0.024832   0.393689  -0.025103   0.001366   0.000008
    25  H    0.000038   0.001396  -0.024771   0.393422  -0.025321   0.001229
    26  H   -0.000003   0.000000   0.000002  -0.000063   0.000342  -0.000140
    27  H    0.000000  -0.000000  -0.000000  -0.000003   0.000038   0.000009
    28  H   -0.000000  -0.000000   0.000000   0.000000   0.000000   0.000001
    29  H    0.000000   0.000000   0.000000  -0.000000  -0.000000  -0.000000
    30  H    0.000000  -0.000000   0.000000   0.000000  -0.000000   0.000002
    31  H   -0.000000   0.000000  -0.000000   0.000000   0.000000   0.000000
    32  H   -0.000000   0.000000   0.000000  -0.000000  -0.000000  -0.000000
    33  H    0.000000  -0.000000   0.000000  -0.000000  -0.000000   0.000000
    34  H    0.000000  -0.000000   0.000000  -0.000000   0.000000  -0.000000
    35  H    0.000000  -0.000000  -0.000000  -0.000000   0.000000  -0.000000
    36  H   -0.020994   0.000853  -0.000024   0.000002   0.000003  -0.002095
    37  H   -0.020553  -0.005718   0.000063  -0.000000  -0.000016   0.001117
    38  H   -0.021109   0.000566  -0.000023   0.000003  -0.000003  -0.001503
               7          8          9         10         11         12
     1  C   -0.023024   0.000247   0.000026   0.000574  -0.000005   0.000000
     2  C    0.000746   0.000008   0.000000  -0.000006   0.000000   0.000000
     3  C    0.000017   0.000355  -0.000020  -0.000000   0.000001  -0.000000
     4  C    0.000793  -0.027770   0.001741  -0.000031   0.000012   0.000000
     5  C   -0.029328   0.294243  -0.040516  -0.004942  -0.001967   0.000002
     6  C    0.388420  -0.016787  -0.006867  -0.033491  -0.000063  -0.000004
     7  C    4.759754  -0.001803  -0.023755   0.354282  -0.001164   0.000077
     8  O   -0.001803   7.791929   0.264916  -0.015361  -0.017131   0.000217
     9  C   -0.023755   0.264916   4.744098   0.355144   0.356646  -0.019703
    10  C    0.354282  -0.015361   0.355144   4.814080  -0.022893  -0.001674
    11  C   -0.001164  -0.017131   0.356646  -0.022893   4.771091   0.360751
    12  C    0.000077   0.000217  -0.019703  -0.001674   0.360751   4.699608
    13  N   -0.000659  -0.000000  -0.003168  -0.022178  -0.023194   0.330836
    14  C   -0.018389   0.000241  -0.023784   0.360961  -0.004103  -0.034283
    15  C   -0.001113  -0.000000   0.000628  -0.015774   0.000004   0.001342
    16  C    0.000008   0.000000  -0.000009   0.000724  -0.000015   0.001441
    17  C    0.000012   0.000000   0.000029   0.001220   0.001113  -0.032105
    18  O    0.432663   0.000000   0.000292  -0.024230  -0.000001   0.000000
    19  C   -0.002502  -0.000001  -0.000000   0.000006  -0.000000   0.000000
    20  H   -0.025046  -0.000310  -0.021067   0.378602   0.001132  -0.000018
    21  H    0.001281  -0.020801   0.378570  -0.025284  -0.026640  -0.001151
    22  H    0.001204   0.000006  -0.003262  -0.028365  -0.000131  -0.004469
    23  H   -0.000013   0.000000  -0.000000   0.000000  -0.000000  -0.000000
    24  H    0.000001  -0.000005   0.000000  -0.000000  -0.000000   0.000000
    25  H   -0.000018  -0.001116   0.000037   0.000001  -0.000001   0.000000
    26  H    0.000027  -0.000890  -0.022068  -0.001062   0.380415  -0.021279
    27  H   -0.000001  -0.000351  -0.020841   0.001114   0.382125  -0.019898
    28  H   -0.000005  -0.000004   0.001136  -0.000019  -0.020511   0.383199
    29  H    0.000002  -0.000001  -0.001380  -0.000089  -0.024661   0.376468
    30  H   -0.000292  -0.000000   0.000014  -0.003096   0.000000  -0.000015
    31  H    0.000002   0.000000  -0.000010   0.000688  -0.000001  -0.000033
    32  H   -0.000000  -0.000000   0.000000  -0.000009   0.000000  -0.000029
    33  H   -0.000000  -0.000000   0.000000  -0.000021   0.000000  -0.000008
    34  H   -0.000000  -0.000000  -0.000000  -0.000029  -0.000007  -0.003611
    35  H   -0.000000   0.000000  -0.000001  -0.000019   0.000005  -0.000470
    36  H   -0.000067  -0.000000  -0.000000  -0.000004   0.000000  -0.000000
    37  H    0.000012   0.000000   0.000000   0.000000   0.000000  -0.000000
    38  H   -0.000046  -0.000000  -0.000000  -0.000003  -0.000000   0.000000
              13         14         15         16         17         18
     1  C    0.000000  -0.000004  -0.000000  -0.000000  -0.000000  -0.001184
     2  C   -0.000000   0.000000   0.000000   0.000000   0.000000  -0.000004
     3  C   -0.000000  -0.000000   0.000000  -0.000000  -0.000000  -0.000000
     4  C   -0.000000   0.000000  -0.000000   0.000000   0.000000  -0.000002
     5  C    0.000001   0.000013  -0.000000   0.000000  -0.000000   0.000335
     6  C   -0.000004   0.000537  -0.000002   0.000000   0.000000  -0.029029
     7  C   -0.000659  -0.018389  -0.001113   0.000008   0.000012   0.432663
     8  O   -0.000000   0.000241  -0.000000   0.000000   0.000000   0.000000
     9  C   -0.003168  -0.023784   0.000628  -0.000009   0.000029   0.000292
    10  C   -0.022178   0.360961  -0.015774   0.000724   0.001220  -0.024230
    11  C   -0.023194  -0.004103   0.000004  -0.000015   0.001113  -0.000001
    12  C    0.330836  -0.034283   0.001342   0.001441  -0.032105   0.000000
    13  N    6.510948   0.329903  -0.030281  -0.034038   0.333011   0.000019
    14  C    0.329903   4.735176   0.364191  -0.032728  -0.047904  -0.000666
    15  C   -0.030281   0.364191   4.764904   0.360539  -0.031892  -0.001621
    16  C   -0.034038  -0.032728   0.360539   4.752739   0.364595   0.000002
    17  C    0.333011  -0.047904  -0.031892   0.364595   4.713956  -0.000003
    18  O    0.000019  -0.000666  -0.001621   0.000002  -0.000003   7.856099
    19  C    0.000000  -0.000000   0.000000  -0.000000  -0.000000  -0.001840
    20  H    0.000838  -0.019906  -0.001186  -0.000000  -0.000026  -0.000555
    21  H    0.000052  -0.002009   0.000003  -0.000000  -0.000006  -0.000006
    22  H   -0.024345   0.377576  -0.027832   0.000498  -0.001770  -0.000014
    23  H    0.000000  -0.000000   0.000000  -0.000000  -0.000000   0.000000
    24  H   -0.000000   0.000000  -0.000000   0.000000   0.000000  -0.000000
    25  H   -0.000000  -0.000000  -0.000000   0.000000   0.000000   0.000000
    26  H   -0.000818   0.000086  -0.000003  -0.000000   0.000006  -0.000008
    27  H    0.000913   0.000016   0.000001   0.000000  -0.000023   0.000000
    28  H   -0.020217   0.001789  -0.000029   0.000010  -0.002186   0.000000
    29  H   -0.022314  -0.003259  -0.000002  -0.000002  -0.002579  -0.000000
    30  H    0.000441  -0.018493   0.384897  -0.020153   0.001314   0.000743
    31  H    0.001042  -0.022039   0.383548  -0.021557   0.000822   0.000026
    32  H    0.001118   0.001318  -0.019946   0.383798  -0.020202  -0.000000
    33  H   -0.000189   0.000867  -0.022054   0.384571  -0.021715   0.000030
    34  H   -0.021568  -0.001900  -0.000393  -0.023186   0.377815  -0.000000
    35  H   -0.020252   0.002006   0.001402  -0.019064   0.383745   0.000000
    36  H   -0.000000   0.000000  -0.000000  -0.000000   0.000000  -0.000445
    37  H   -0.000000  -0.000000   0.000000  -0.000000   0.000000   0.000074
    38  H    0.000000   0.000000  -0.000000   0.000000  -0.000000  -0.000438
              19         20         21         22         23         24
     1  C    0.381371  -0.000017   0.000001   0.000000  -0.025012   0.001325
     2  C   -0.030491   0.000000   0.000000  -0.000000   0.394282  -0.024832
     3  C    0.000886   0.000000   0.000000  -0.000000  -0.026913   0.393689
     4  C    0.000012  -0.000002  -0.000039  -0.000000   0.001433  -0.025103
     5  C    0.000714   0.000052   0.002544  -0.000001   0.000048   0.001366
     6  C   -0.023810   0.000336  -0.000029  -0.000019   0.001245   0.000008
     7  C   -0.002502  -0.025046   0.001281   0.001204  -0.000013   0.000001
     8  O   -0.000001  -0.000310  -0.020801   0.000006   0.000000  -0.000005
     9  C   -0.000000  -0.021067   0.378570  -0.003262  -0.000000   0.000000
    10  C    0.000006   0.378602  -0.025284  -0.028365   0.000000  -0.000000
    11  C   -0.000000   0.001132  -0.026640  -0.000131  -0.000000  -0.000000
    12  C    0.000000  -0.000018  -0.001151  -0.004469  -0.000000   0.000000
    13  N    0.000000   0.000838   0.000052  -0.024345   0.000000  -0.000000
    14  C   -0.000000  -0.019906  -0.002009   0.377576  -0.000000   0.000000
    15  C    0.000000  -0.001186   0.000003  -0.027832   0.000000  -0.000000
    16  C   -0.000000  -0.000000  -0.000000   0.000498  -0.000000   0.000000
    17  C   -0.000000  -0.000026  -0.000006  -0.001770  -0.000000   0.000000
    18  O   -0.001840  -0.000555  -0.000006  -0.000014   0.000000  -0.000000
    19  C    4.712766  -0.000000  -0.000000   0.000000  -0.004319  -0.000016
    20  H   -0.000000   0.622379  -0.003670  -0.002280  -0.000000  -0.000000
    21  H   -0.000000  -0.003670   0.635830   0.000256   0.000000  -0.000000
    22  H    0.000000  -0.002280   0.000256   0.678475   0.000000  -0.000000
    23  H   -0.004319  -0.000000   0.000000   0.000000   0.605846  -0.003753
    24  H   -0.000016  -0.000000  -0.000000  -0.000000  -0.003753   0.594588
    25  H    0.000000  -0.000000  -0.000005   0.000000  -0.000033  -0.003727
    26  H   -0.000000  -0.000010   0.001872   0.000010   0.000000  -0.000000
    27  H    0.000000  -0.000029  -0.003477  -0.000012   0.000000  -0.000000
    28  H   -0.000000   0.000002  -0.000012  -0.000012  -0.000000  -0.000000
    29  H    0.000000  -0.000003   0.000372   0.001937   0.000000  -0.000000
    30  H    0.000000   0.000027  -0.000001   0.001723   0.000000   0.000000
    31  H   -0.000000   0.000094   0.000001  -0.007433  -0.000000   0.000000
    32  H    0.000000  -0.000000   0.000000  -0.000027   0.000000  -0.000000
    33  H    0.000000   0.000000   0.000000  -0.000027   0.000000  -0.000000
    34  H    0.000000   0.000001   0.000001   0.001222   0.000000  -0.000000
    35  H   -0.000000   0.000001   0.000000  -0.000059   0.000000  -0.000000
    36  H    0.380981  -0.000000  -0.000000  -0.000000   0.000069   0.000000
    37  H    0.382554  -0.000000   0.000000   0.000000   0.000139  -0.000003
    38  H    0.380506   0.000000   0.000000  -0.000000   0.000076   0.000000
              25         26         27         28         29         30
     1  C    0.000038  -0.000003   0.000000  -0.000000   0.000000   0.000000
     2  C    0.001396   0.000000  -0.000000  -0.000000   0.000000  -0.000000
     3  C   -0.024771   0.000002  -0.000000   0.000000   0.000000   0.000000
     4  C    0.393422  -0.000063  -0.000003   0.000000  -0.000000   0.000000
     5  C   -0.025321   0.000342   0.000038   0.000000  -0.000000  -0.000000
     6  C    0.001229  -0.000140   0.000009   0.000001  -0.000000   0.000002
     7  C   -0.000018   0.000027  -0.000001  -0.000005   0.000002  -0.000292
     8  O   -0.001116  -0.000890  -0.000351  -0.000004  -0.000001  -0.000000
     9  C    0.000037  -0.022068  -0.020841   0.001136  -0.001380   0.000014
    10  C    0.000001  -0.001062   0.001114  -0.000019  -0.000089  -0.003096
    11  C   -0.000001   0.380415   0.382125  -0.020511  -0.024661   0.000000
    12  C    0.000000  -0.021279  -0.019898   0.383199   0.376468  -0.000015
    13  N   -0.000000  -0.000818   0.000913  -0.020217  -0.022314   0.000441
    14  C   -0.000000   0.000086   0.000016   0.001789  -0.003259  -0.018493
    15  C   -0.000000  -0.000003   0.000001  -0.000029  -0.000002   0.384897
    16  C    0.000000  -0.000000   0.000000   0.000010  -0.000002  -0.020153
    17  C    0.000000   0.000006  -0.000023  -0.002186  -0.002579   0.001314
    18  O    0.000000  -0.000008   0.000000   0.000000  -0.000000   0.000743
    19  C    0.000000  -0.000000   0.000000  -0.000000   0.000000   0.000000
    20  H   -0.000000  -0.000010  -0.000029   0.000002  -0.000003   0.000027
    21  H   -0.000005   0.001872  -0.003477  -0.000012   0.000372  -0.000001
    22  H    0.000000   0.000010  -0.000012  -0.000012   0.001937   0.001723
    23  H   -0.000033   0.000000   0.000000  -0.000000   0.000000   0.000000
    24  H   -0.003727  -0.000000  -0.000000  -0.000000  -0.000000   0.000000
    25  H    0.590681  -0.000002   0.000001  -0.000000  -0.000000  -0.000000
    26  H   -0.000002   0.626763  -0.023884  -0.003581   0.001865  -0.000000
    27  H    0.000001  -0.023884   0.624971  -0.001209  -0.002692  -0.000000
    28  H   -0.000000  -0.003581  -0.001209   0.622182  -0.025701   0.000001
    29  H   -0.000000   0.001865  -0.002692  -0.025701   0.658266  -0.000001
    30  H   -0.000000  -0.000000  -0.000000   0.000001  -0.000001   0.604980
    31  H   -0.000000   0.000000  -0.000000   0.000001   0.000002  -0.024136
    32  H    0.000000   0.000000  -0.000000  -0.000001   0.000002   0.001152
    33  H   -0.000000  -0.000000  -0.000000   0.000001  -0.000002  -0.006729
    34  H   -0.000000  -0.000001   0.000000  -0.000256   0.001731  -0.000021
    35  H   -0.000000   0.000002  -0.000000   0.000379  -0.000177  -0.000037
    36  H   -0.000000   0.000000  -0.000000   0.000000   0.000000   0.000000
    37  H    0.000000   0.000000  -0.000000  -0.000000   0.000000  -0.000000
    38  H   -0.000000  -0.000000   0.000000   0.000000  -0.000000   0.000000
              31         32         33         34         35         36
     1  C   -0.000000  -0.000000   0.000000   0.000000   0.000000  -0.020994
     2  C    0.000000   0.000000  -0.000000  -0.000000  -0.000000   0.000853
     3  C   -0.000000   0.000000   0.000000   0.000000  -0.000000  -0.000024
     4  C    0.000000  -0.000000  -0.000000  -0.000000  -0.000000   0.000002
     5  C    0.000000  -0.000000  -0.000000   0.000000   0.000000   0.000003
     6  C    0.000000  -0.000000   0.000000  -0.000000  -0.000000  -0.002095
     7  C    0.000002  -0.000000  -0.000000  -0.000000  -0.000000  -0.000067
     8  O    0.000000  -0.000000  -0.000000  -0.000000   0.000000  -0.000000
     9  C   -0.000010   0.000000   0.000000  -0.000000  -0.000001  -0.000000
    10  C    0.000688  -0.000009  -0.000021  -0.000029  -0.000019  -0.000004
    11  C   -0.000001   0.000000   0.000000  -0.000007   0.000005   0.000000
    12  C   -0.000033  -0.000029  -0.000008  -0.003611  -0.000470  -0.000000
    13  N    0.001042   0.001118  -0.000189  -0.021568  -0.020252  -0.000000
    14  C   -0.022039   0.001318   0.000867  -0.001900   0.002006   0.000000
    15  C    0.383548  -0.019946  -0.022054  -0.000393   0.001402  -0.000000
    16  C   -0.021557   0.383798   0.384571  -0.023186  -0.019064  -0.000000
    17  C    0.000822  -0.020202  -0.021715   0.377815   0.383745   0.000000
    18  O    0.000026  -0.000000   0.000030  -0.000000   0.000000  -0.000445
    19  C   -0.000000   0.000000   0.000000   0.000000  -0.000000   0.380981
    20  H    0.000094  -0.000000   0.000000   0.000001   0.000001  -0.000000
    21  H    0.000001   0.000000   0.000000   0.000001   0.000000  -0.000000
    22  H   -0.007433  -0.000027  -0.000027   0.001222  -0.000059  -0.000000
    23  H   -0.000000   0.000000   0.000000   0.000000   0.000000   0.000069
    24  H    0.000000  -0.000000  -0.000000  -0.000000  -0.000000   0.000000
    25  H   -0.000000   0.000000  -0.000000  -0.000000  -0.000000  -0.000000
    26  H    0.000000   0.000000  -0.000000  -0.000001   0.000002   0.000000
    27  H   -0.000000  -0.000000  -0.000000   0.000000  -0.000000  -0.000000
    28  H    0.000001  -0.000001   0.000001  -0.000256   0.000379   0.000000
    29  H    0.000002   0.000002  -0.000002   0.001731  -0.000177   0.000000
    30  H   -0.024136   0.001152  -0.006729  -0.000021  -0.000037   0.000000
    31  H    0.642614  -0.005971   0.001778   0.000069  -0.000020   0.000000
    32  H   -0.005971   0.632121  -0.023228  -0.004114   0.000438   0.000000
    33  H    0.001778  -0.023228   0.627151   0.001816  -0.004572   0.000000
    34  H    0.000069  -0.004114   0.001816   0.657837  -0.026415  -0.000000
    35  H   -0.000020   0.000438  -0.004572  -0.026415   0.621540  -0.000000
    36  H    0.000000   0.000000   0.000000  -0.000000  -0.000000   0.606887
    37  H   -0.000000   0.000000  -0.000000  -0.000000  -0.000000  -0.022329
    38  H    0.000000  -0.000000   0.000000   0.000000   0.000000  -0.018287
              37         38
     1  C   -0.020553  -0.021109
     2  C   -0.005718   0.000566
     3  C    0.000063  -0.000023
     4  C   -0.000000   0.000003
     5  C   -0.000016  -0.000003
     6  C    0.001117  -0.001503
     7  C    0.000012  -0.000046
     8  O    0.000000  -0.000000
     9  C    0.000000  -0.000000
    10  C    0.000000  -0.000003
    11  C    0.000000  -0.000000
    12  C   -0.000000   0.000000
    13  N   -0.000000   0.000000
    14  C   -0.000000   0.000000
    15  C    0.000000  -0.000000
    16  C   -0.000000   0.000000
    17  C    0.000000  -0.000000
    18  O    0.000074  -0.000438
    19  C    0.382554   0.380506
    20  H   -0.000000   0.000000
    21  H    0.000000   0.000000
    22  H    0.000000  -0.000000
    23  H    0.000139   0.000076
    24  H   -0.000003   0.000000
    25  H    0.000000  -0.000000
    26  H    0.000000  -0.000000
    27  H   -0.000000   0.000000
    28  H   -0.000000   0.000000
    29  H    0.000000  -0.000000
    30  H   -0.000000   0.000000
    31  H   -0.000000   0.000000
    32  H    0.000000  -0.000000
    33  H   -0.000000   0.000000
    34  H   -0.000000   0.000000
    35  H   -0.000000   0.000000
    36  H   -0.022329  -0.018287
    37  H    0.626831  -0.021903
    38  H   -0.021903   0.606067
 Mulliken charges:
               1
     1  C    0.035195
     2  C   -0.080839
     3  C   -0.048885
     4  C   -0.086969
     5  C    0.131954
     6  C   -0.066596
     7  C    0.187925
     8  O   -0.249831
     9  C    0.083173
    10  C   -0.068816
    11  C   -0.110808
    12  C   -0.015194
    13  N   -0.285898
    14  C    0.054788
    15  C   -0.109331
    16  C   -0.098172
    17  C   -0.017228
    18  O   -0.230237
    19  C   -0.176817
    20  H    0.070660
    21  H    0.062346
    22  H    0.037149
    23  H    0.056905
    24  H    0.066462
    25  H    0.068191
    26  H    0.062423
    27  H    0.063232
    28  H    0.065042
    29  H    0.042220
    30  H    0.077680
    31  H    0.050511
    32  H    0.053581
    33  H    0.062332
    34  H    0.041008
    35  H    0.061570
    36  H    0.075447
    37  H    0.059732
    38  H    0.076097
 Sum of Mulliken charges =  -0.00000
 Mulliken charges with hydrogens summed into heavy atoms:
               1
     1  C    0.035195
     2  C   -0.023934
     3  C    0.017577
     4  C   -0.018778
     5  C    0.131954
     6  C   -0.066596
     7  C    0.187925
     8  O   -0.249831
     9  C    0.145519
    10  C    0.001844
    11  C    0.014846
    12  C    0.092069
    13  N   -0.285898
    14  C    0.091937
    15  C    0.018859
    16  C    0.017741
    17  C    0.085349
    18  O   -0.230237
    19  C    0.034460
 Electronic spatial extent (au):  <R**2>=           4810.5317
 Charge=             -0.0000 electrons
 Dipole moment (field-independent basis, Debye):
    X=              0.9519    Y=             -1.1757    Z=             -0.0117  Tot=              1.5128
 Quadrupole moment (field-independent basis, Debye-Ang):
   XX=            -98.1274   YY=           -108.2183   ZZ=           -104.7635
   XY=             -4.2711   XZ=             -2.3484   YZ=             -0.9117
 Traceless Quadrupole moment (field-independent basis, Debye-Ang):
   XX=              5.5756   YY=             -4.5152   ZZ=             -1.0604
   XY=             -4.2711   XZ=             -2.3484   YZ=             -0.9117
 Octapole moment (field-independent basis, Debye-Ang**2):
  XXX=             -1.4789  YYY=             -3.2946  ZZZ=             -4.7078  XYY=              0.7648
  XXY=             -0.5498  XXZ=              3.7114  XZZ=              6.9131  YZZ=              2.1873
  YYZ=              5.3042  XYZ=              0.0680
 Hexadecapole moment (field-independent basis, Debye-Ang**3):
 XXXX=          -4102.8324 YYYY=          -1405.1101 ZZZZ=           -475.4507 XXXY=             19.8280
 XXXZ=            -24.3956 YYYX=            -11.4998 YYYZ=             -0.4067 ZZZX=             14.5274
 ZZZY=             -0.5825 XXYY=           -921.1025 XXZZ=           -800.0099 YYZZ=           -311.3635
 XXYZ=              8.6710 YYXZ=             -3.1683 ZZXY=             -4.9423
 N-N= 1.506783021281D+03 E-N=-4.908927646543D+03  KE= 8.035086684244D+02
 ******************************Gaussian NBO Version 3.1******************************
             N A T U R A L   A T O M I C   O R B I T A L   A N D
          N A T U R A L   B O N D   O R B I T A L   A N A L Y S I S
 ******************************Gaussian NBO Version 3.1******************************
       /RESON  / : Allow strongly delocalized NBO set
       /NLMO   / : Form Natural Localized Molecular Orbitals
       /NMR /    : Analyze NMR Sheilding Tensor 

 Analyzing the SCF density

 Job title: Title Card Required                                             

 Storage needed:     43472 in NPA,     53775 in NBO,    102144 in NLMO ( 104850000 available)
 GSVD:  LWork=      -13908 too small for GESVD, short by       66690 words or       66690 for optimal perf.


 NATURAL POPULATIONS:  Natural atomic orbital occupancies 
                                                          
   NAO  Atom  No  lang   Type(AO)    Occupancy      Energy
 ----------------------------------------------------------
     1    C    1  S      Cor( 1S)     1.99991     -10.98111
     2    C    1  S      Val( 2S)     1.08262      -0.19834
     3    C    1  px     Val( 2p)     0.95951       0.15242
     4    C    1  py     Val( 2p)     0.94545       0.15032
     5    C    1  pz     Val( 2p)     0.93489       0.04106

     6    C    2  S      Cor( 1S)     1.99995     -10.94332
     7    C    2  S      Val( 2S)     1.07978      -0.18210
     8    C    2  px     Val( 2p)     0.97347       0.15014
     9    C    2  py     Val( 2p)     0.97849       0.14746
    10    C    2  pz     Val( 2p)     1.04386       0.01469

    11    C    3  S      Cor( 1S)     1.99994     -10.96065
    12    C    3  S      Val( 2S)     1.07937      -0.18539
    13    C    3  px     Val( 2p)     0.98385       0.13837
    14    C    3  py     Val( 2p)     0.98184       0.14187
    15    C    3  pz     Val( 2p)     0.96338       0.02722

    16    C    4  S      Cor( 1S)     1.99994     -10.94515
    17    C    4  S      Val( 2S)     1.07665      -0.18246
    18    C    4  px     Val( 2p)     0.97747       0.14472
    19    C    4  py     Val( 2p)     0.99217       0.13965
    20    C    4  pz     Val( 2p)     1.04993       0.01003

    21    C    5  S      Cor( 1S)     1.99978     -11.03105
    22    C    5  S      Val( 2S)     1.05945      -0.21205
    23    C    5  px     Val( 2p)     0.91703       0.12432
    24    C    5  py     Val( 2p)     0.89512       0.16298
    25    C    5  pz     Val( 2p)     0.93988       0.01061

    26    C    6  S      Cor( 1S)     1.99991     -10.95842
    27    C    6  S      Val( 2S)     1.08869      -0.20601
    28    C    6  px     Val( 2p)     0.98304       0.12862
    29    C    6  py     Val( 2p)     0.97141       0.14138
    30    C    6  pz     Val( 2p)     1.08547       0.00099

    31    C    7  S      Cor( 1S)     1.99996     -11.05341
    32    C    7  S      Val( 2S)     1.08055      -0.24187
    33    C    7  px     Val( 2p)     0.92628       0.11052
    34    C    7  py     Val( 2p)     0.85241       0.17539
    35    C    7  pz     Val( 2p)     0.89532       0.01066

    36    O    8  S      Cor( 1S)     1.99999     -20.20772
    37    O    8  S      Val( 2S)     1.72866      -1.01727
    38    O    8  px     Val( 2p)     1.16109      -0.06171
    39    O    8  py     Val( 2p)     1.57193      -0.25022
    40    O    8  pz     Val( 2p)     1.79305      -0.34127

    41    C    9  S      Cor( 1S)     1.99988     -11.06045
    42    C    9  S      Val( 2S)     1.08749      -0.24252
    43    C    9  px     Val( 2p)     0.80275       0.10470
    44    C    9  py     Val( 2p)     0.97912       0.06283
    45    C    9  pz     Val( 2p)     0.97843       0.06367

    46    C   10  S      Cor( 1S)     1.99996     -11.00780
    47    C   10  S      Val( 2S)     1.10299      -0.23397
    48    C   10  px     Val( 2p)     0.98673       0.07142
    49    C   10  py     Val( 2p)     0.98245       0.06798
    50    C   10  pz     Val( 2p)     1.01326       0.06592

    51    C   11  S      Cor( 1S)     1.99996     -10.99188
    52    C   11  S      Val( 2S)     1.09149      -0.21306
    53    C   11  px     Val( 2p)     0.98822       0.07669
    54    C   11  py     Val( 2p)     1.02859       0.06958
    55    C   11  pz     Val( 2p)     0.98155       0.07728

    56    C   12  S      Cor( 1S)     1.99994     -11.01932
    57    C   12  S      Val( 2S)     1.07198      -0.20307
    58    C   12  px     Val( 2p)     0.97728       0.07285
    59    C   12  py     Val( 2p)     0.89452       0.10754
    60    C   12  pz     Val( 2p)     1.01647       0.06505

    61    N   13  S      Cor( 1S)     1.99999     -15.24790
    62    N   13  S      Val( 2S)     1.44484      -0.59939
    63    N   13  px     Val( 2p)     1.30580      -0.06615
    64    N   13  py     Val( 2p)     1.31975      -0.06805
    65    N   13  pz     Val( 2p)     1.20304      -0.02581

    66    C   14  S      Cor( 1S)     1.99994     -11.02607
    67    C   14  S      Val( 2S)     1.08082      -0.21383
    68    C   14  px     Val( 2p)     0.95140       0.09350
    69    C   14  py     Val( 2p)     0.99537       0.07296
    70    C   14  pz     Val( 2p)     0.87070       0.11419

    71    C   15  S      Cor( 1S)     1.99996     -10.97444
    72    C   15  S      Val( 2S)     1.08542      -0.19014
    73    C   15  px     Val( 2p)     1.00307       0.08441
    74    C   15  py     Val( 2p)     0.99656       0.09507
    75    C   15  pz     Val( 2p)     0.99444       0.09580

    76    C   16  S      Cor( 1S)     1.99997     -10.97646
    77    C   16  S      Val( 2S)     1.08185      -0.18880
    78    C   16  px     Val( 2p)     1.00382       0.09706
    79    C   16  py     Val( 2p)     0.99440       0.09291
    80    C   16  pz     Val( 2p)     0.98301       0.08982

    81    C   17  S      Cor( 1S)     1.99995     -11.00828
    82    C   17  S      Val( 2S)     1.07366      -0.19531
    83    C   17  px     Val( 2p)     0.88692       0.11602
    84    C   17  py     Val( 2p)     0.98749       0.07484
    85    C   17  pz     Val( 2p)     1.01473       0.07711

    86    O   18  S      Cor( 1S)     1.99999     -20.10845
    87    O   18  S      Val( 2S)     1.80470      -1.05566
    88    O   18  px     Val( 2p)     1.80381      -0.30610
    89    O   18  py     Val( 2p)     1.38002      -0.12211
    90    O   18  pz     Val( 2p)     1.25303      -0.13170

    91    C   19  S      Cor( 1S)     1.99997     -10.97233
    92    C   19  S      Val( 2S)     1.07819      -0.18279
    93    C   19  px     Val( 2p)     1.04348       0.07458
    94    C   19  py     Val( 2p)     0.98528       0.08871
    95    C   19  pz     Val( 2p)     1.03877       0.07798

    96    H   20  S      Val( 1S)     0.95101       0.05111

    97    H   21  S      Val( 1S)     0.97453       0.04126

    98    H   22  S      Val( 1S)     0.99377       0.04305

    99    H   23  S      Val( 1S)     0.96823       0.06973

   100    H   24  S      Val( 1S)     0.96150       0.06360

   101    H   25  S      Val( 1S)     0.95659       0.07565

   102    H   26  S      Val( 1S)     0.95956       0.06489

   103    H   27  S      Val( 1S)     0.95823       0.06290

   104    H   28  S      Val( 1S)     0.96181       0.05915

   105    H   29  S      Val( 1S)     0.98579       0.04866

   106    H   30  S      Val( 1S)     0.94532       0.09309

   107    H   31  S      Val( 1S)     0.96943       0.06801

   108    H   32  S      Val( 1S)     0.96689       0.06952

   109    H   33  S      Val( 1S)     0.95898       0.07993

   110    H   34  S      Val( 1S)     0.98637       0.05305

   111    H   35  S      Val( 1S)     0.96514       0.06520

   112    H   36  S      Val( 1S)     0.94106       0.08638

   113    H   37  S      Val( 1S)     0.95687       0.07650

   114    H   38  S      Val( 1S)     0.94021       0.08598


 Summary of Natural Population Analysis:                  
                                                          
                                       Natural Population 
                Natural  -----------------------------------------------
    Atom  No    Charge         Core      Valence    Rydberg      Total
 -----------------------------------------------------------------------
      C    1    0.07761      1.99991     3.92248    0.00000     5.92239
      C    2   -0.07555      1.99995     4.07560    0.00000     6.07555
      C    3   -0.00838      1.99994     4.00844    0.00000     6.00838
      C    4   -0.09616      1.99994     4.09622    0.00000     6.09616
      C    5    0.18875      1.99978     3.81147    0.00000     5.81125
      C    6   -0.12852      1.99991     4.12861    0.00000     6.12852
      C    7    0.24547      1.99996     3.75457    0.00000     5.75453
      O    8   -0.25472      1.99999     6.25473    0.00000     8.25472
      C    9    0.15234      1.99988     3.84779    0.00000     5.84766
      C   10   -0.08538      1.99996     4.08542    0.00000     6.08538
      C   11   -0.08981      1.99996     4.08985    0.00000     6.08981
      C   12    0.03982      1.99994     3.96025    0.00000     5.96018
      N   13   -0.27341      1.99999     5.27342    0.00000     7.27341
      C   14    0.10176      1.99994     3.89830    0.00000     5.89824
      C   15   -0.07945      1.99996     4.07948    0.00000     6.07945
      C   16   -0.06306      1.99997     4.06309    0.00000     6.06306
      C   17    0.03725      1.99995     3.96281    0.00000     5.96275
      O   18   -0.24155      1.99999     6.24156    0.00000     8.24155
      C   19   -0.14569      1.99997     4.14572    0.00000     6.14569
      H   20    0.04899      0.00000     0.95101    0.00000     0.95101
      H   21    0.02547      0.00000     0.97453    0.00000     0.97453
      H   22    0.00623      0.00000     0.99377    0.00000     0.99377
      H   23    0.03177      0.00000     0.96823    0.00000     0.96823
      H   24    0.03850      0.00000     0.96150    0.00000     0.96150
      H   25    0.04341      0.00000     0.95659    0.00000     0.95659
      H   26    0.04044      0.00000     0.95956    0.00000     0.95956
      H   27    0.04177      0.00000     0.95823    0.00000     0.95823
      H   28    0.03819      0.00000     0.96181    0.00000     0.96181
      H   29    0.01421      0.00000     0.98579    0.00000     0.98579
      H   30    0.05468      0.00000     0.94532    0.00000     0.94532
      H   31    0.03057      0.00000     0.96943    0.00000     0.96943
      H   32    0.03311      0.00000     0.96689    0.00000     0.96689
      H   33    0.04102      0.00000     0.95898    0.00000     0.95898
      H   34    0.01363      0.00000     0.98637    0.00000     0.98637
      H   35    0.03486      0.00000     0.96514    0.00000     0.96514
      H   36    0.05894      0.00000     0.94106    0.00000     0.94106
      H   37    0.04313      0.00000     0.95687    0.00000     0.95687
      H   38    0.05979      0.00000     0.94021    0.00000     0.94021
 =======================================================================
   * Total *   -0.00000     37.99887   100.00113    0.00000   138.00000

                                 Natural Population      
 --------------------------------------------------------
   Core                      37.99887 ( 99.9970% of  38)
   Valence                  100.00113 (100.0011% of 100)
   Natural Minimal Basis    138.00000 (100.0000% of 138)
   Natural Rydberg Basis      0.00000 (  0.0000% of 138)
 --------------------------------------------------------

    Atom  No          Natural Electron Configuration
 ----------------------------------------------------------------------------
      C    1      [core]2S( 1.08)2p( 2.84)
      C    2      [core]2S( 1.08)2p( 3.00)
      C    3      [core]2S( 1.08)2p( 2.93)
      C    4      [core]2S( 1.08)2p( 3.02)
      C    5      [core]2S( 1.06)2p( 2.75)
      C    6      [core]2S( 1.09)2p( 3.04)
      C    7      [core]2S( 1.08)2p( 2.67)
      O    8      [core]2S( 1.73)2p( 4.53)
      C    9      [core]2S( 1.09)2p( 2.76)
      C   10      [core]2S( 1.10)2p( 2.98)
      C   11      [core]2S( 1.09)2p( 3.00)
      C   12      [core]2S( 1.07)2p( 2.89)
      N   13      [core]2S( 1.44)2p( 3.83)
      C   14      [core]2S( 1.08)2p( 2.82)
      C   15      [core]2S( 1.09)2p( 2.99)
      C   16      [core]2S( 1.08)2p( 2.98)
      C   17      [core]2S( 1.07)2p( 2.89)
      O   18      [core]2S( 1.80)2p( 4.44)
      C   19      [core]2S( 1.08)2p( 3.07)
      H   20            1S( 0.95)
      H   21            1S( 0.97)
      H   22            1S( 0.99)
      H   23            1S( 0.97)
      H   24            1S( 0.96)
      H   25            1S( 0.96)
      H   26            1S( 0.96)
      H   27            1S( 0.96)
      H   28            1S( 0.96)
      H   29            1S( 0.99)
      H   30            1S( 0.95)
      H   31            1S( 0.97)
      H   32            1S( 0.97)
      H   33            1S( 0.96)
      H   34            1S( 0.99)
      H   35            1S( 0.97)
      H   36            1S( 0.94)
      H   37            1S( 0.96)
      H   38            1S( 0.94)


 NATURAL BOND ORBITAL ANALYSIS:

                       Occupancies       Lewis Structure    Low   High
           Occ.    -------------------  -----------------   occ   occ
  Cycle   Thresh.   Lewis   Non-Lewis     CR  BD  3C  LP    (L)   (NL)   Dev
 =============================================================================
   1(1)    1.90   134.42787   3.57213     19  43   0   7     3      3    0.45
   2(2)    1.90   134.42787   3.57213     19  43   0   7     3      3    0.45
   3(1)    1.80   134.34566   3.65434     19  42   0   8     3      3    0.45
   4(2)    1.80   134.34566   3.65434     19  42   0   8     3      3    0.45
   5(1)    1.70   134.34566   3.65434     19  42   0   8     3      3    0.45
   6(2)    1.70   134.34566   3.65434     19  42   0   8     3      3    0.45
   7(1)    1.60   135.51772   2.48228     19  44   0   6     1      3    0.43
   8(2)    1.60   136.12909   1.87091     19  45   0   5     0      3    0.43
   9(3)    1.60   136.08587   1.91413     19  45   0   5     0      3    0.45
  10(4)    1.60   136.12909   1.87091     19  45   0   5     0      3    0.43
  11(1)    1.50   136.12909   1.87091     19  45   0   5     0      3    0.43
  12(2)    1.50   136.08587   1.91413     19  45   0   5     0      3    0.45
  13(3)    1.50   136.12909   1.87091     19  45   0   5     0      3    0.43
  14(1)    1.60   136.12909   1.87091     19  45   0   5     0      3    0.43
 -----------------------------------------------------------------------------

 Structure accepted: RESONANCE keyword permits strongly delocalized structure

 --------------------------------------------------------
   Core                     37.99887 ( 99.997% of  38)
   Valence Lewis            98.13022 ( 98.130% of 100)
  ==================       ============================
   Total Lewis             136.12909 ( 98.644% of 138)
  -----------------------------------------------------
   Valence non-Lewis         1.87091 (  1.356% of 138)
   Rydberg non-Lewis         0.00000 (  0.000% of 138)
  ==================       ============================
   Total non-Lewis           1.87091 (  1.356% of 138)
 --------------------------------------------------------


       (Occupancy)   Bond orbital/ Coefficients/ Hybrids
 ---------------------------------------------------------------------------------
     1. (1.98525) BD ( 1) C   1 - C   2  
                ( 49.99%)   0.7070* C   1 s( 33.74%)p 1.96( 66.26%)
                                            0.0000  0.5808 -0.7581 -0.2644  0.1341
                ( 50.01%)   0.7072* C   2 s( 34.45%)p 1.90( 65.55%)
                                            0.0001  0.5870  0.7555  0.2658 -0.1184
     2. (1.65952) BD ( 2) C   1 - C   2  
                ( 45.48%)   0.6744* C   1 s(  0.00%)p 1.00(100.00%)
                                           -0.0000  0.0002  0.2525 -0.2494  0.9349
                ( 54.52%)   0.7383* C   2 s(  0.00%)p 1.00(100.00%)
                                           -0.0000 -0.0016  0.2375 -0.2540  0.9376
     3. (1.98092) BD ( 1) C   1 - C   6  
                ( 49.47%)   0.7034* C   1 s( 34.65%)p 1.89( 65.35%)
                                            0.0001  0.5887  0.5725 -0.4936 -0.2864
                ( 50.53%)   0.7108* C   6 s( 35.58%)p 1.81( 64.42%)
                                           -0.0000  0.5965 -0.5334  0.5308  0.2791
     4. (1.98731) BD ( 1) C   1 - C  19  
                ( 50.15%)   0.7081* C   1 s( 31.61%)p 2.16( 68.39%)
                                           -0.0000  0.5622  0.1837  0.7901  0.1610
                ( 49.85%)   0.7061* C  19 s( 25.58%)p 2.91( 74.42%)
                                            0.0001  0.5058 -0.1675 -0.8282 -0.1738
     5. (1.98983) BD ( 1) C   2 - C   3  
                ( 49.55%)   0.7039* C   2 s( 34.21%)p 1.92( 65.79%)
                                            0.0001  0.5849 -0.2082 -0.7686 -0.1545
                ( 50.45%)   0.7103* C   3 s( 34.33%)p 1.91( 65.67%)
                                            0.0000  0.5859  0.1926  0.7714  0.1570
     6. (1.98877) BD ( 1) C   2 - H  23  
                ( 51.61%)   0.7184* C   2 s( 31.34%)p 2.19( 68.66%)
                                           -0.0001  0.5598 -0.5739  0.5236  0.2882
                ( 48.39%)   0.6956* H  23 s(100.00%)
                                            1.0000
[...]
   41      -3.1405       -6.1518       3.0112       -14.0692      10.9287
   42       0.3599       -4.9507       5.3106       -11.0839      11.4438
   62     200.0140       -0.0085     200.0224         0.0084     200.0056
   67       2.4384       -0.3719       2.8104         1.3769       1.0616
 Sum      197.6304      -43.7031     241.3335       -45.9382     243.5686

 Contributions to Isotropic shielding for atom   18 (  -343.3339 ppm):
                         Standard Origin              Atomic Origin
 NLMO      Total    Paramagnetic  Diamagnetic   Paramagnetic  Diamagnetic
    3      -0.4876       -0.6391       0.1514        -1.1680       0.6803
    4       0.1407       -0.9730       1.1137        -0.8531       0.9937
    8       0.4360       -0.2234       0.6593        -0.6115       1.0475
   13       1.1107        0.0540       1.0567        -0.3472       1.4578
   15      -9.6961       -9.9121       0.2160       -10.5082       0.8121
   16     -10.2354      -10.6351       0.3997       -10.9853       0.7499
   17    -117.5370     -127.1476       9.6106      -127.0161       9.4791
   18     -25.9123      -51.4162      25.5039       -50.9822      25.0699
   20      -1.3308       -1.5138       0.1829        -1.3675       0.0366
   23      -0.3199       -0.4935       0.1736        -1.1326       0.8126
   36      -0.5164       -1.4899       0.9736        -0.8514       0.3351
   43      -0.3856       -1.4993       1.1137        -1.3563       0.9707
   45      -0.3616       -1.7661       1.4045        -1.3482       0.9866
   63     271.9244       -0.0053     271.9297        -0.0052     271.9296
   68     -33.7921      -68.8621      35.0700       -68.8206      35.0284
   69    -416.6915     -454.0399      37.3484      -456.2746      39.5831
 Sum     -343.6548     -730.5625     386.9077      -733.6278     389.9729

 Contributions to Isotropic shielding for atom   19 (   217.8028 ppm):
                         Standard Origin              Atomic Origin
 NLMO      Total    Paramagnetic  Diamagnetic   Paramagnetic  Diamagnetic
    1      -1.8675       -1.3823      -0.4852        -2.3708       0.5033
    2      -0.7800       -0.8286       0.0487        -2.4366       1.6566
    3      -1.0034       -1.4863       0.4829        -1.3105       0.3071
    4       3.2483      -10.3608      13.6091        -3.7139       6.9623
    6      -0.6781       -1.6773       0.9992        -1.7165       1.0384
    8       0.8287       -0.3710       1.1997        -0.3544       1.1831
   15      -0.3137       -0.0390      -0.2747        -1.1774       0.8637
   17      -0.4100       -0.3404      -0.0696        -1.1215       0.7115
   18       0.2705        0.1354       0.1351        -1.2094       1.4799
   43       7.0122       -7.3896      14.4018        -4.4500      11.4622
   44       4.1250        4.0567       0.0682        -7.0326      11.1576
   45       7.2734       -2.7688      10.0421        -4.1511      11.4245
   64     200.0781       -0.0028     200.0809         0.0029     200.0751
 Sum      217.7835      -22.4549     240.2383       -31.0419     248.8253

 Contributions to Isotropic shielding for atom   20 (    31.2233 ppm):
                         Standard Origin              Atomic Origin
 NLMO      Total    Paramagnetic  Diamagnetic   Paramagnetic  Diamagnetic
   13       0.0711       -0.4261       0.4972        -1.1768       1.2479
   16       1.9858        1.5399       0.4460         1.0352       0.9507
   18       0.0369       -0.0465       0.0834        -1.0467       1.0836
   19       0.0610       -0.2817       0.3427        -0.9813       1.0423
   20       1.2944        1.1604       0.1340         0.5816       0.7128
   23       1.0992        1.5811      -0.4819         0.1637       0.9355
   24      25.8358        0.0548      25.7810         0.3892      25.4465
 Sum       30.3841        3.5818      26.8023        -1.0351      31.4192

 Contributions to Isotropic shielding for atom   21 (    30.4087 ppm):
                         Standard Origin              Atomic Origin
 NLMO      Total    Paramagnetic  Diamagnetic   Paramagnetic  Diamagnetic
   13       0.1636       -0.3464       0.5099        -0.8681       1.0317
   19       0.8072        1.5130      -0.7058        -1.2859       2.0931
   20       0.8668        0.4706       0.3963        -0.2090       1.0758
   21       0.5301        1.0584      -0.5284        -0.6685       1.1986
   22      26.4042        0.2156      26.1886         0.8625      25.5417
 Sum       28.7719        2.9113      25.8606        -2.1690      30.9409

 Contributions to Isotropic shielding for atom   22 (    32.1371 ppm):
                         Standard Origin              Atomic Origin
 NLMO      Total    Paramagnetic  Diamagnetic   Paramagnetic  Diamagnetic
   23       1.1082        0.2493       0.8590         0.0656       1.0426
   31       0.7090        1.1187      -0.4097         0.1170       0.5919
   33       0.3469        1.8772      -1.5303        -0.7128       1.0597
   34      26.8404       -0.1507      26.9911         0.7438      26.0966
   37      -0.0101       -1.1893       1.1791        -1.1515       1.1413
   38       0.1493       -0.9369       1.0862        -0.6913       0.8406
   41       0.1557       -1.0480       1.2037        -0.6291       0.7848
 Sum       29.2994       -0.0797      29.3791        -2.2582      31.5576

 Contributions to Isotropic shielding for atom   23 (    25.8788 ppm):
                         Standard Origin              Atomic Origin
 NLMO      Total    Paramagnetic  Diamagnetic   Paramagnetic  Diamagnetic
    1      -1.3292       -2.8168       1.4876        -1.9050       0.5758
    2       0.9917        1.3567      -0.3650        -2.3683       3.3600
    4      -0.6898        0.6981      -1.3879        -1.7771       1.0873
    5      -2.0203       -1.1814      -0.8389        -2.7187       0.6984
    6      27.0135        0.9558      26.0576         1.5200      25.4935
    9      -0.0734       -0.3224       0.2490        -1.1773       1.1039
   13       0.5154        0.8216      -0.3062        -0.7389       1.2543
   44      -0.1461       -1.1051       0.9591        -0.9264       0.7804
 Sum       24.2617       -1.5936      25.8553       -10.0919      34.3536

 Contributions to Isotropic shielding for atom   24 (    25.2944 ppm):
                         Standard Origin              Atomic Origin
 NLMO      Total    Paramagnetic  Diamagnetic   Paramagnetic  Diamagnetic
    2       1.3342        0.8861       0.4481         0.2759       1.0583
    5      -2.0031       -2.0855       0.0824        -2.7349       0.7318
    6      -0.1116        0.1867      -0.2983        -1.2416       1.1300
    7      -1.9339       -2.5563       0.6224        -2.6473       0.7134
    8       0.3538        1.3241      -0.9703        -2.4731       2.8270
    9      26.9086        1.0995      25.8091         1.5968      25.3118
   11      -0.1111        0.5434      -0.6545        -1.2203       1.1093
   13       0.5330        0.7280      -0.1950        -0.8398       1.3728
 Sum       24.9700        0.1260      24.8440        -9.2843      34.2543

 Contributions to Isotropic shielding for atom   25 (    25.6981 ppm):
                         Standard Origin              Atomic Origin
 NLMO      Total    Paramagnetic  Diamagnetic   Paramagnetic  Diamagnetic
    2       1.2201       -0.3265       1.5466        -0.0122       1.2323
    7      -1.8192       -1.0204      -0.7988        -2.5050       0.6858
    8       0.1552        0.3167      -0.1615        -3.2503       3.4055
    9      -0.0550       -0.8293       0.7743        -1.1507       1.0957
   10      -1.0005       -2.5109       1.5104        -1.5581       0.5577
   11      26.5674        1.0568      25.5106         1.3264      25.2410
   14      -0.5164        0.4934      -1.0098        -2.1326       1.6162
   65      -0.2103       -0.4738       0.2635         0.7994      -1.0097
 Sum       24.3414       -3.2939      27.6353        -8.4829      32.8244

 Contributions to Isotropic shielding for atom   26 (    32.7853 ppm):
                         Standard Origin              Atomic Origin
 NLMO      Total    Paramagnetic  Diamagnetic   Paramagnetic  Diamagnetic
   13      -0.2852       -0.6320       0.3468        -1.4976       1.2124
   19      -0.0867       -0.3097       0.2230        -1.0058       0.9192
   21       1.5790       -0.4287       2.0078         0.7683       0.8107
   25       1.2132        0.4360       0.7772         0.2251       0.9881
   26      26.0255        0.3085      25.7169         0.3642      25.6612
   27       1.9436        1.3378       0.6058         0.0649       1.8788
   28       0.2246       -0.9447       1.1693        -0.8538       1.0784
   29       0.0501       -0.8627       0.9127        -0.9741       1.0242
 Sum       30.6641       -1.0954      31.7595        -2.9088      33.5729

 Contributions to Isotropic shielding for atom   27 (    32.0744 ppm):
                         Standard Origin              Atomic Origin
 NLMO      Total    Paramagnetic  Diamagnetic   Paramagnetic  Diamagnetic
   19      -0.0505        0.1606      -0.2110        -1.2854       1.2350
   21       1.2162        0.9300       0.2862         0.2826       0.9337
   22       0.0546        0.0351       0.0195        -0.9704       1.0250
   25       0.9029        1.9975      -1.0946        -0.0807       0.9836
   26       2.1430        0.9897       1.1533         0.2715       1.8715
   27      26.1321       -0.0044      26.1365         0.4651      25.6670
 Sum       30.3983        4.1083      26.2899        -1.3174      31.7157

 Contributions to Isotropic shielding for atom   28 (    31.8182 ppm):
                         Standard Origin              Atomic Origin
 NLMO      Total    Paramagnetic  Diamagnetic   Paramagnetic  Diamagnetic
   25       1.0779        0.2734       0.8044         0.0295       1.0484
   26       0.1242        0.1928      -0.0686        -0.9434       1.0676
   28       0.9622        0.3458       0.6164        -0.2617       1.2239
   29      26.2135        0.2759      25.9376         0.6807      25.5328
   30       1.3247        1.8496      -0.5249        -0.3803       1.7050
   32      -0.1709        0.5050      -0.6758        -1.0378       0.8669
 Sum       29.5316        3.4425      26.0891        -1.9130      31.4446

 Contributions to Isotropic shielding for atom   29 (    32.6550 ppm):
                         Standard Origin              Atomic Origin
 NLMO      Total    Paramagnetic  Diamagnetic   Paramagnetic  Diamagnetic
   25       1.0152        0.4227       0.5926         0.0794       0.9359
   29       1.7516        2.1245      -0.3729        -0.0757       1.8273
   30      26.7812        0.2785      26.5027         0.8131      25.9681
   41       0.1249       -1.1944       1.3193        -0.7110       0.8359
 Sum       29.6729        1.6312      28.0417         0.1058      29.5671

 Contributions to Isotropic shielding for atom   30 (    30.8027 ppm):
                         Standard Origin              Atomic Origin
 NLMO      Total    Paramagnetic  Diamagnetic   Paramagnetic  Diamagnetic
   16      -0.1945        0.0677      -0.2622        -1.1888       0.9943
   17      -0.4914       -0.5096       0.0182        -1.0899       0.5984
   18       0.1760       -0.1632       0.3391        -1.1733       1.3493
   23      -0.1953       -0.1220      -0.0733        -1.0500       0.8547
   33       1.7958       -1.1912       2.9870         1.2199       0.5759
   36      25.6980        0.2867      25.4113         0.4271      25.2708
   37       1.9147        1.7502       0.1646         0.1003       1.8144
   38       0.2741       -0.7360       1.0101         0.1354       0.1387
   40      -0.0164       -1.3953       1.3789        -1.2102       1.1938
   68      -0.1541        0.0424      -0.1965         0.8790      -1.0331
 Sum       28.8069       -1.9704      30.7773        -2.9504      31.7573

 Contributions to Isotropic shielding for atom   31 (    31.9103 ppm):
                         Standard Origin              Atomic Origin
 NLMO      Total    Paramagnetic  Diamagnetic   Paramagnetic  Diamagnetic
   33       1.4299        0.2477       1.1822         0.6531       0.7768
   34      -0.2261        0.3669      -0.5931        -1.3531       1.1269
   35       0.5475        2.6686      -2.1212        -0.3665       0.9140
   36       2.1296        1.3290       0.8005         0.2246       1.9050
   37      26.4424       -0.2616      26.7040         0.4816      25.9608
   39       0.0276       -0.8456       0.8732        -1.0752       1.1028
 Sum       30.3508        3.5051      26.8457        -1.4356      31.7864

 Contributions to Isotropic shielding for atom   32 (    32.1280 ppm):
                         Standard Origin              Atomic Origin
 NLMO      Total    Paramagnetic  Diamagnetic   Paramagnetic  Diamagnetic
   31      -0.1886        0.3449      -0.5335        -1.1129       0.9243
   35       1.0695        0.8374       0.2320         0.2444       0.8250
   37      -0.0691        0.7379      -0.8070        -1.1935       1.1244
   38       0.6655        1.7447      -1.0792        -0.0782       0.7436
   39      26.4643       -0.2106      26.6749         0.5984      25.8659
   40       2.0766        2.1261      -0.0495         0.2973       1.7793
   41      -0.0170        0.2628      -0.2798        -1.0841       1.0671
 Sum       30.0011        5.8432      24.1578        -2.3286      32.3296

 Contributions to Isotropic shielding for atom   33 (    31.6533 ppm):
                         Standard Origin              Atomic Origin
 NLMO      Total    Paramagnetic  Diamagnetic   Paramagnetic  Diamagnetic
   31      -0.1127        0.2975      -0.4102        -1.0330       0.9204
   35       1.5051       -1.2155       2.7206         0.6086       0.8964
   36      -0.1526        0.1346      -0.2872        -1.3119       1.1593
   38       1.2341       -0.2467       1.4808         0.4406       0.7935
   39       1.7284        2.7345      -1.0060        -0.0711       1.7995
   40      26.0901        0.2637      25.8264         0.4419      25.6482
   42       0.0209       -0.3171       0.3380        -1.0667       1.0876
 Sum       30.3133        1.6510      28.6623        -1.9915      32.3048

 Contributions to Isotropic shielding for atom   34 (    32.4572 ppm):
                         Standard Origin              Atomic Origin
 NLMO      Total    Paramagnetic  Diamagnetic   Paramagnetic  Diamagnetic
   28      -0.3752        0.8988      -1.2740        -1.1172       0.7420
   32       1.4487       -1.1287       2.5774         0.8921       0.5566
   38       0.6327        1.2438      -0.6112        -0.1703       0.8029
   39       0.1328       -0.1726       0.3054        -0.8858       1.0186
   41      26.8994        0.3447      26.5547         0.9148      25.9845
   42       1.6692        2.1901      -0.5208        -0.1737       1.8429
 Sum       30.4075        3.3759      27.0316        -0.5401      30.9476

 Contributions to Isotropic shielding for atom   35 (    31.7862 ppm):
                         Standard Origin              Atomic Origin
 NLMO      Total    Paramagnetic  Diamagnetic   Paramagnetic  Diamagnetic
   32       1.4752       -1.1042       2.5794         0.3740       1.1012
   40       0.0747       -0.3220       0.3967        -1.0304       1.1051
   41       1.2748        1.9758      -0.7010        -0.4138       1.6886
   42      26.2611        0.3692      25.8919         0.6986      25.5625
 Sum       29.0859        0.9189      28.1670        -0.3716      29.4575

 Contributions to Isotropic shielding for atom   36 (    30.9194 ppm):
                         Standard Origin              Atomic Origin
 NLMO      Total    Paramagnetic  Diamagnetic   Paramagnetic  Diamagnetic
    2      -0.6575       -0.6348      -0.0228        -1.5324       0.8749
    4       1.8449       -0.9019       2.7468         0.9754       0.8696
    8       0.5451       -0.2980       0.8432        -0.5492       1.0944
   15      -0.2073        0.0833      -0.2906        -1.1294       0.9222
   18       0.1381       -0.0327       0.1708        -1.2055       1.3437
   43      25.6932        0.3100      25.3832         0.3374      25.3557
   44       1.8396        1.9062      -0.0666        -0.0540       1.8936
   45       2.1963        0.3859       1.8105         0.3724       1.8240
 Sum       31.3925        0.8180      30.5745        -2.7854      34.1779

 Contributions to Isotropic shielding for atom   37 (    30.9541 ppm):
                         Standard Origin              Atomic Origin
 NLMO      Total    Paramagnetic  Diamagnetic   Paramagnetic  Diamagnetic
    1      -0.9480        0.0272      -0.9752        -1.8677       0.9197
    2      -0.6231       -0.0717      -0.5514        -2.2356       1.6125
    4       1.0248        0.9387       0.0861         0.2627       0.7622
    6      -0.0189       -1.5313       1.5124        -0.9543       0.9354
   18       0.0754        0.0397       0.0357        -0.9313       1.0067
   43       2.0588        1.6014       0.4574         0.0684       1.9904
   44      26.2876       -0.1073      26.3949         0.5146      25.7731
   45       2.1288        2.4343      -0.3054         0.1619       1.9669
 Sum       29.9855        3.3310      26.6545        -4.9813      34.9668

 Contributions to Isotropic shielding for atom   38 (    30.8341 ppm):
                         Standard Origin              Atomic Origin
 NLMO      Total    Paramagnetic  Diamagnetic   Paramagnetic  Diamagnetic
    2      -0.8124       -0.4548      -0.3575        -1.7583       0.9460
    4       1.7478       -0.0762       1.8240         0.8707       0.8771
    8       0.6004       -0.1990       0.7994        -0.4732       1.0736
   15      -0.2499        0.0714      -0.3213        -1.1627       0.9129
   18       0.1144        0.1627      -0.0484        -1.1431       1.2574
   43       2.2714        0.1891       2.0823         0.4772       1.7943
   44       1.7939        2.5422      -0.7483        -0.0682       1.8620
   45      25.6925        0.1964      25.4961         0.3448      25.3477
 Sum       31.1581        2.4317      28.7263        -2.9130      34.0710
 
 1\1\GINC-GNOSIE-MM\SP\RHF\STO-3G\C16H19N1O2\MBENIDD\18-May-2026\0\\# n
 mr=giao hf/sto-3g pop=nbo\\Title Card Required\\0,1\C,0,0.,0.,0.\C,0,1
 .4079,0.,0.\C,0,2.1268,1.193,0.\C,0,1.4482,2.4055,0.0138\C,0,0.0522,2.
 4277,0.0297\C,0,-0.6824,1.2365,-0.0031\C,0,-2.1625,1.3408,-0.0863\O,0,
 -0.4979,3.6789,0.0703\C,0,-1.8279,3.719,0.5866\C,0,-2.7649,2.7367,-0.1
 227\C,0,-1.8461,3.603,2.1243\C,0,-3.2723,3.6202,2.679\N,0,-4.0652,2.61
 77,1.9805\C,0,-4.1387,2.8814,0.5369\C,0,-5.3056,2.0234,0.0532\C,0,-6.0
 671,1.6578,1.3291\C,0,-5.4508,2.5182,2.4245\O,0,-2.8429,0.3291,-0.2289
 \C,0,-0.7013,-1.3321,-0.0098\H,0,-2.834,3.0009,-1.1865\H,0,-2.1842,4.7
 313,0.3497\H,0,-4.4596,3.9256,0.3878\H,0,1.9564,-0.9407,-0.0056\H,0,3.
 2136,1.1756,-0.0055\H,0,2.0058,3.3386,0.024\H,0,-1.3402,2.6845,2.4474\
 H,0,-1.2641,4.4245,2.5597\H,0,-3.2387,3.3965,3.7515\H,0,-3.7046,4.6226
 ,2.5665\H,0,-5.0215,1.122,-0.4923\H,0,-5.9498,2.6084,-0.6141\H,0,-7.14
 33,1.8285,1.2281\H,0,-5.914,0.5947,1.5526\H,0,-5.9403,3.4996,2.4569\H,
 0,-5.5399,2.0449,3.407\H,0,-1.3889,-1.4123,0.838\H,0,0.0106,-2.1598,0.
 0852\H,0,-1.2382,-1.4763,-0.9524\\Version=EM64L-G16RevB.01\State=1-A\H
 F=-811.0594291\RMSD=4.839e-09\Dipole=-0.1986492,0.5226451,0.2040622\Qu
 adrupole=1.8590598,-1.1156362,-0.7434235,-4.9729302,-0.1373095,0.86790
 53\PG=C01 [X(C16H19N1O2)]\\@


 TO DRY ONE'S EYES AND LAUGH AT A FALL
 AND BAFFLED, GET UP AND BEGIN AGAIN.
           R. BROWNING
 Job cpu time:       0 days  0 hours  3 minutes 38.6 seconds.
 Elapsed time:       0 days  0 hours  1 minutes 58.3 seconds.
 File lengths (MBytes):  RWF=     14 Int=      0 D2E=      0 Chk=      2 Scr=      1
 Normal termination of Gaussian 16 at Mon May 18 11:39:38 2026.
