 Entering Gaussian System, Link 0=g16
 Input=/home/mbenidd/Bureau/Elaeocarpines/HF_NMR/3/3_elaeocarpine_c_1.gjf
 Output=/home/mbenidd/Bureau/Elaeocarpines/HF_NMR/3/3_elaeocarpine_c_1.log
 Initial command:
 /opt/gaussian/g16/l1.exe "/home/mbenidd/Bureau/Elaeocarpines/HF_NMR/3/Gau-9751.inp" -scrdir="/home/mbenidd/Bureau/Elaeocarpines/HF_NMR/3/"
 Entering Link 1 = /opt/gaussian/g16/l1.exe PID=      9754.
  
 Copyright (c) 1988-2017, Gaussian, Inc.  All Rights Reserved.
  
 This is part of the Gaussian(R) 16 program.  It is based on
 the Gaussian(R) 09 system (copyright 2009, Gaussian, Inc.),
 the Gaussian(R) 03 system (copyright 2003, Gaussian, Inc.),
 the Gaussian(R) 98 system (copyright 1998, Gaussian, Inc.),
 the Gaussian(R) 94 system (copyright 1995, Gaussian, Inc.),
 the Gaussian 92(TM) system (copyright 1992, Gaussian, Inc.),
 the Gaussian 90(TM) system (copyright 1990, Gaussian, Inc.),
 the Gaussian 88(TM) system (copyright 1988, Gaussian, Inc.),
 the Gaussian 86(TM) system (copyright 1986, Carnegie Mellon
 University), and the Gaussian 82(TM) system (copyright 1983,
 Carnegie Mellon University). Gaussian is a federally registered
 trademark of Gaussian, Inc.
  
 This software contains proprietary and confidential information,
 including trade secrets, belonging to Gaussian, Inc.
  
 This software is provided under written license and may be
 used, copied, transmitted, or stored only in accord with that
 written license.
  
 The following legend is applicable only to US Government
 contracts under FAR:
  
                    RESTRICTED RIGHTS LEGEND
  
 Use, reproduction and disclosure by the US Government is
 subject to restrictions as set forth in subparagraphs (a)
 and (c) of the Commercial Computer Software - Restricted
 Rights clause in FAR 52.227-19.
  
 Gaussian, Inc.
 340 Quinnipiac St., Bldg. 40, Wallingford CT 06492
  
  
 ---------------------------------------------------------------
 Warning -- This program may not be used in any manner that
 competes with the business of Gaussian, Inc. or will provide
 assistance to any competitor of Gaussian, Inc.  The licensee
 of this program is prohibited from giving any competitor of
 Gaussian, Inc. access to this program.  By using this program,
 the user acknowledges that Gaussian, Inc. is engaged in the
 business of creating and licensing software in the field of
 computational chemistry and represents and warrants to the
 licensee that it is not a competitor of Gaussian, Inc. and that
 it will not use this program in any manner prohibited above.
 ---------------------------------------------------------------
  

 Cite this work as:
 Gaussian 16, Revision B.01,
 M. J. Frisch, G. W. Trucks, H. B. Schlegel, G. E. Scuseria, 
 M. A. Robb, J. R. Cheeseman, G. Scalmani, V. Barone, 
 G. A. Petersson, H. Nakatsuji, X. Li, M. Caricato, A. V. Marenich, 
 J. Bloino, B. G. Janesko, R. Gomperts, B. Mennucci, H. P. Hratchian, 
 J. V. Ortiz, A. F. Izmaylov, J. L. Sonnenberg, D. Williams-Young, 
 F. Ding, F. Lipparini, F. Egidi, J. Goings, B. Peng, A. Petrone, 
 T. Henderson, D. Ranasinghe, V. G. Zakrzewski, J. Gao, N. Rega, 
 G. Zheng, W. Liang, M. Hada, M. Ehara, K. Toyota, R. Fukuda, 
 J. Hasegawa, M. Ishida, T. Nakajima, Y. Honda, O. Kitao, H. Nakai, 
 T. Vreven, K. Throssell, J. A. Montgomery, Jr., J. E. Peralta, 
 F. Ogliaro, M. J. Bearpark, J. J. Heyd, E. N. Brothers, K. N. Kudin, 
 V. N. Staroverov, T. A. Keith, R. Kobayashi, J. Normand, 
 K. Raghavachari, A. P. Rendell, J. C. Burant, S. S. Iyengar, 
 J. Tomasi, M. Cossi, J. M. Millam, M. Klene, C. Adamo, R. Cammi, 
 J. W. Ochterski, R. L. Martin, K. Morokuma, O. Farkas, 
 J. B. Foresman, and D. J. Fox, Gaussian, Inc., Wallingford CT, 2016.
 
 ******************************************
 Gaussian 16:  EM64L-G16RevB.01 20-Dec-2017
                18-May-2026 
 ******************************************
 %nprocshared=4
 Will use up to    4 processors via shared memory.
 ----------------------------
 # nmr=giao hf/sto-3g pop=nbo
 ----------------------------
 1/38=1,172=1/1;
 2/12=2,17=6,18=5,40=1/2;
 3/6=3,11=9,25=1,30=1/1,2,3,8;
 4//1;
 5/5=2,38=5/2;
 8/6=1,10=90,11=11/1;
 10/13=100,45=16/2;
 6/7=2,8=2,9=2,10=2,28=1,40=1,64=1/1,7;
 99/9=1/99;
 -------------------
 Title Card Required
 -------------------
 Symbolic Z-matrix:
 Charge =  0 Multiplicity = 1
 C                     0.        0.        0. 
 C                     1.4074    0.        0. 
 C                     2.1278    1.194     0. 
 C                     1.4527    2.4091   -0.0105 
 C                     0.0587    2.4294   -0.0296 
 C                    -0.6768    1.2363   -0.0001 
 C                    -2.1526    1.3479    0.083 
 O                    -0.5103    3.6763   -0.033 
 C                    -1.7828    3.6854   -0.6858 
 C                    -2.7629    2.7233   -0.0362 
 C                    -2.3295    5.1118   -0.6511 
 C                    -2.7401    5.5181    0.7623 
 N                    -3.7644    4.6095    1.3006 
 C                    -3.3263    3.1949    1.3086 
 C                    -2.4329    3.0863    2.544 
 C                    -3.0361    4.0825    3.5287 
 C                    -4.0315    4.907     2.7182 
 O                    -2.864     0.3652    0.2813 
 C                    -0.7086   -1.3272    0.018 
 H                    -3.6078    2.6277   -0.7345 
 H                    -1.6203    3.4124   -1.7387 
 H                    -4.2198    2.5833    1.5071 
 H                     1.9559   -0.9409    0.0081 
 H                     3.2149    1.1744    0.0083 
 H                     2.011     3.3418   -0.0111 
 H                    -3.1941    5.1925   -1.3219 
 H                    -1.5673    5.813    -1.0114 
 H                    -1.8511    5.5661    1.4039 
 H                    -3.1534    6.5333    0.7208 
 H                    -1.3955    3.3676    2.342 
 H                    -2.4274    2.0725    2.9579 
 H                    -2.2498    4.7147    3.9554 
 H                    -3.5398    3.5669    4.3534 
 H                    -3.9815    5.9754    2.9565 
 H                    -5.0517    4.5807    2.9554 
 H                    -1.4124   -1.4001   -0.8171 
 H                    -0.0034   -2.1586   -0.0922 
 H                    -1.2313   -1.4694    0.9688 
 
                          Input orientation:                          
 ---------------------------------------------------------------------
 Center     Atomic      Atomic             Coordinates (Angstroms)
 Number     Number       Type             X           Y           Z
 ---------------------------------------------------------------------
      1          6           0        0.000000    0.000000    0.000000
      2          6           0        1.407400    0.000000    0.000000
      3          6           0        2.127800    1.194000    0.000000
      4          6           0        1.452700    2.409100   -0.010500
      5          6           0        0.058700    2.429400   -0.029600
      6          6           0       -0.676800    1.236300   -0.000100
      7          6           0       -2.152600    1.347900    0.083000
      8          8           0       -0.510300    3.676300   -0.033000
      9          6           0       -1.782800    3.685400   -0.685800
     10          6           0       -2.762900    2.723300   -0.036200
     11          6           0       -2.329500    5.111800   -0.651100
     12          6           0       -2.740100    5.518100    0.762300
     13          7           0       -3.764400    4.609500    1.300600
     14          6           0       -3.326300    3.194900    1.308600
     15          6           0       -2.432900    3.086300    2.544000
     16          6           0       -3.036100    4.082500    3.528700
     17          6           0       -4.031500    4.907000    2.718200
     18          8           0       -2.864000    0.365200    0.281300
     19          6           0       -0.708600   -1.327200    0.018000
     20          1           0       -3.607800    2.627700   -0.734500
     21          1           0       -1.620300    3.412400   -1.738700
     22          1           0       -4.219800    2.583300    1.507100
     23          1           0        1.955900   -0.940900    0.008100
     24          1           0        3.214900    1.174400    0.008300
     25          1           0        2.011000    3.341800   -0.011100
     26          1           0       -3.194100    5.192500   -1.321900
     27          1           0       -1.567300    5.813000   -1.011400
     28          1           0       -1.851100    5.566100    1.403900
     29          1           0       -3.153400    6.533300    0.720800
     30          1           0       -1.395500    3.367600    2.342000
     31          1           0       -2.427400    2.072500    2.957900
     32          1           0       -2.249800    4.714700    3.955400
     33          1           0       -3.539800    3.566900    4.353400
     34          1           0       -3.981500    5.975400    2.956500
     35          1           0       -5.051700    4.580700    2.955400
     36          1           0       -1.412400   -1.400100   -0.817100
     37          1           0       -0.003400   -2.158600   -0.092200
     38          1           0       -1.231300   -1.469400    0.968800
 ---------------------------------------------------------------------
                    Distance matrix (angstroms):
                    1          2          3          4          5
     1  C    0.000000
     2  C    1.407400   0.000000
     3  C    2.439912   1.394494   0.000000
     4  C    2.813221   2.409549   1.390086   0.000000
     5  C    2.430289   2.778822   2.410034   1.394279   0.000000
     6  C    1.409431   2.423289   2.804919   2.431119   1.401898
     7  C    2.541143   3.807535   4.283970   3.759398   2.464177
     8  O    3.711695   4.146546   3.622496   2.336594   1.370596
     9  C    4.151008   4.922385   4.687237   3.543082   2.323630
    10  C    3.879599   4.980871   5.124355   4.227371   2.836873
    11  C    5.655175   6.365442   5.969976   4.692546   3.644864
    12  C    6.207953   6.944947   6.555562   5.276616   4.242694
    13  N    6.091778   7.048870   6.933630   5.811960   4.597647
    14  C    4.794173   5.858988   5.955102   5.019596   3.719542
    15  C    4.681473   5.544825   5.554522   4.699144   3.641841
    16  C    6.191642   6.990223   6.889196   5.956134   4.997202
    17  C    6.907985   7.813379   7.688430   6.615267   5.515310
    18  O    2.900861   4.296203   5.067949   4.785036   3.591623
    19  C    1.504625   2.497847   3.794989   4.316476   3.834457
    20  H    4.523330   5.709337   5.957524   5.116700   3.738907
    21  H    4.158476   4.882061   4.689630   3.665599   2.589663
    22  H    5.172185   6.372611   6.670347   5.874582   4.548702
    23  H    2.170462   1.089133   2.141825   3.387633   3.867779
    24  H    3.422699   2.155537   1.087308   2.151787   3.396772
    25  H    3.900240   3.395892   2.151002   1.087027   2.155062
    26  H    6.237928   7.062810   6.786608   5.573135   4.459313
    27  H    6.104943   6.607779   6.000988   4.659263   3.880278
    28  H    6.031499   6.600775   6.076005   4.783542   3.942226
    29  H    7.290233   8.000279   7.544452   6.225752   5.265233
    30  H    4.332795   4.968092   4.756379   3.816441   2.935882
    31  H    4.351632   5.267838   5.501889   4.896925   3.902977
    32  H    6.552495   7.158820   6.870509   5.895139   5.141205
    33  H    6.648688   7.493307   7.530235   6.731209   5.783926
    34  H    7.765220   8.572429   8.302182   7.145076   6.149319
    35  H    7.432151   8.452051   8.470499   7.471253   6.297182
    36  H    2.150071   3.252569   4.464305   4.834191   4.177243
    37  H    2.160571   2.580390   3.973719   4.794871   4.588847
    38  H    2.147978   3.171821   4.394977   4.817224   4.226292
                    6          7          8          9         10
     6  C    0.000000
     7  C    1.482345   0.000000
     8  O    2.445895   2.851675   0.000000
     9  C    2.773357   2.488315   1.430205   0.000000
    10  C    2.562086   1.509437   2.445900   1.519280   0.000000
    11  C    4.263182   3.838898   2.398374   1.527973   2.504170
    12  C    4.813759   4.265814   2.999456   2.524323   2.906721
    13  N    4.754321   3.836468   3.638477   2.954062   2.519481
    14  C    3.545231   2.508202   3.156183   2.569166   1.532421
    15  C    3.602615   3.026074   3.268856   3.348606   2.626424
    16  C    5.110732   4.486809   4.385245   4.414800   3.824993
    17  C    5.667204   4.810586   4.634930   4.258659   3.736925
    18  O    2.371043   1.229273   4.074564   3.623259   2.381525
    19  C    2.563761   3.040645   5.007688   5.174495   4.541986
    20  H    3.326575   2.103283   3.344573   2.109911   1.100281
    21  H    2.940805   2.804299   2.052110   1.099788   2.163076
    22  H    4.079082   2.797783   4.162565   3.458671   2.126954
    23  H    3.416340   4.703614   5.234727   5.988491   5.974563
    24  H    3.892201   5.370823   4.487574   5.635947   6.175368
    25  H    3.414311   4.617365   2.543486   3.868617   4.813865
    26  H    4.871907   4.223673   3.341094   2.160496   2.817074
    27  H    4.770943   4.634372   2.576820   2.163131   3.453508
    28  H    4.700783   4.430450   2.726494   2.812213   3.314631
    29  H    5.891643   5.319470   3.964422   3.459422   3.904054
    30  H    3.247214   3.123375   2.553331   3.068969   2.817932
    31  H    3.537456   2.977517   3.897811   4.036521   3.082326
    32  H    5.497233   5.132277   4.473418   4.776849   4.490191
    33  H    5.708014   5.008453   5.332011   5.338036   4.536940
    34  H    6.490115   5.745923   5.125641   4.831639   4.584473
    35  H    6.249779   5.206386   5.511151   4.974496   4.199787
    36  H    2.856432   2.984892   5.215212   5.100661   4.408637
    37  H    3.462267   4.116467   5.857176   6.137667   5.608112
    38  H    2.926952   3.093641   5.291661   5.441858   4.575430
                   11         12         13         14         15
    11  C    0.000000
    12  C    1.526883   0.000000
    13  N    2.473939   1.471228   0.000000
    14  C    2.916940   2.457505   1.480908   0.000000
    15  C    3.784443   3.030260   2.374673   1.528454   0.000000
    16  C    4.362278   3.130740   2.402619   2.408504   1.525090
    17  C    3.780335   2.422128   1.472901   2.327137   2.429160
    18  O    4.866752   5.176784   4.456880   3.045697   3.565115
    19  C    6.673510   7.179074   6.799072   5.382136   5.369625
    20  H    2.794952   3.368639   2.844941   2.138975   3.512729
    21  H    2.138644   3.455854   3.907372   3.499111   4.371290
    22  H    3.824183   3.370058   2.086988   1.100817   2.126307
    23  H    7.445426   8.021217   8.074610   6.833577   6.473847
    24  H    6.832152   7.409337   7.885466   6.968536   6.479412
    25  H    4.731008   5.282744   6.056638   5.499996   5.132452
    26  H    1.097278   2.157781   2.746386   3.305664   4.467738
    27  H    1.096561   2.146727   3.408959   3.915473   4.563444
    28  H    2.158305   1.097395   2.141605   2.794260   2.790650
    29  H    2.140463   1.096891   2.100118   3.394159   3.965474
    30  H    3.587929   2.987985   2.870282   2.196754   1.093678
    31  H    4.719302   4.097633   3.312187   2.188148   1.095050
    32  H    4.624271   3.328924   3.058275   3.236386   2.162698
    33  H    5.375552   4.164457   3.233736   3.074862   2.174887
    34  H    4.060750   2.562169   2.157503   3.297884   3.303819
    35  H    4.549646   3.321431   2.096744   2.758514   3.043123
    36  H    6.578257   7.219334   6.792043   5.412545   5.697912
    37  H    7.653877   8.194597   7.867159   6.454755   6.353031
    38  H    6.866026   7.151523   6.593915   5.124469   4.967847
                   16         17         18         19         20
    16  C    0.000000
    17  C    1.525625   0.000000
    18  O    4.938982   5.284835   0.000000
    19  C    6.856174   7.562936   2.753052   0.000000
    20  H    4.540722   4.158830   2.589207   4.961134   0.000000
    21  H    5.495364   5.283150   3.861686   5.136244   2.361001
    22  H    2.781297   2.627128   2.874152   5.462413   2.324067
    23  H    7.908807   8.797246   5.001197   2.692376   6.651400
    24  H    7.741141   8.589888   6.138596   4.653165   7.015203
    25  H    6.209029   6.812543   5.719377   5.403391   5.710005
    26  H    4.978492   4.135838   5.097258   7.104895   2.663529
    27  H    5.075875   4.561034   5.747263   7.264949   3.792947
    28  H    2.849573   2.629818   5.416231   7.123455   4.036452
    29  H    3.728871   2.721308   6.190506   8.261866   4.192623
    30  H    2.147302   3.075675   3.926497   5.283366   3.860903
    31  H    2.176334   3.265729   3.204634   4.811990   3.916045
    32  H    1.095453   2.177636   5.726640   7.374481   5.309887
    33  H    1.095302   2.170603   5.223944   7.124858   5.174306
    34  H    2.191863   1.095794   6.315049   8.524941   4.997022
    35  H    2.153954   1.097061   5.450439   7.898995   4.417513
    36  H    7.182011   7.690094   2.535727   1.094551   4.588004
    37  H    7.826846   8.605036   3.833028   1.095754   6.026020
    38  H    6.374479   7.180529   2.550318   1.094284   5.033410
                   21         22         23         24         25
    21  H    0.000000
    22  H    4.240286   0.000000
    23  H    5.898452   7.266791   0.000000
    24  H    5.607122   7.714024   2.461620   0.000000
    25  H    4.021931   6.457795   4.283097   2.479390   0.000000
    26  H    2.412328   3.982867   8.118497   7.680484   5.677707
    27  H    2.508915   4.879504   7.685537   6.739869   4.462248
    28  H    3.816756   3.810313   7.666978   6.848291   4.676062
    29  H    4.259055   4.166291   9.081660   8.353485   6.114931
    30  H    4.087133   3.047762   5.936509   5.613561   4.140288
    31  H    4.950232   2.361871   6.082369   6.429796   5.488668
    32  H    5.874949   3.797096   8.078051   7.614215   5.981003
    33  H    6.389212   3.087279   8.330943   8.380329   7.064765
    34  H    5.847148   3.696470   9.580239   9.139456   7.186971
    35  H    5.930768   2.603697   9.395802   9.414083   7.759944
    36  H    4.904358   5.399155   3.498180   5.359220   5.903805
    37  H    6.030039   6.543807   2.309050   4.634268   5.858224
    38  H    5.595878   5.064117   3.370534   5.261267   5.883907
                   26         27         28         29         30
    26  H    0.000000
    27  H    1.768589   0.000000
    28  H    3.061570   2.444417   0.000000
    29  H    2.443773   2.456636   1.760138   0.000000
    30  H    4.470949   4.153888   2.433312   3.967387   0.000000
    31  H    5.351534   5.521454   3.866818   5.042859   1.766758
    32  H    5.382368   5.132365   2.719190   3.819219   2.268825
    33  H    5.913638   6.141401   3.943103   4.705807   2.946773
    34  H    4.420140   4.647469   2.667714   2.448542   3.723658
    35  H    4.703219   5.421726   3.690800   3.522730   3.900727
    36  H    6.847748   7.217379   7.324837   8.266502   5.719367
    37  H    8.107490   8.175397   8.082283   9.280765   6.196948
    38  H    7.313057   7.554299   7.076138   8.234026   5.030826
                   31         32         33         34         35
    31  H    0.000000
    32  H    2.829800   0.000000
    33  H    2.327678   1.771990   0.000000
    34  H    4.200935   2.363462   2.819096   0.000000
    35  H    3.630155   2.978019   2.295220   1.757987   0.000000
    36  H    5.228748   7.801844   7.478702   8.674003   7.952750
    37  H    5.751617   8.286835   8.065410   9.554151   8.954963
    38  H    4.234646   6.942637   6.492227   8.181662   7.426018
                   36         37         38
    36  H    0.000000
    37  H    1.756725   0.000000
    38  H    1.796396   1.763081   0.000000
 Stoichiometry    C16H19NO2
 Framework group  C1[X(C16H19NO2)]
 Deg. of freedom   108
 Full point group                 C1      NOp   1
 Largest Abelian subgroup         C1      NOp   1
 Largest concise Abelian subgroup C1      NOp   1
                         Standard orientation:                         
 ---------------------------------------------------------------------
 Center     Atomic      Atomic             Coordinates (Angstroms)
 Number     Number       Type             X           Y           Z
 ---------------------------------------------------------------------
      1          6           0        3.010477   -0.616743    0.032923
      2          6           0        3.902051    0.259615    0.679348
      3          6           0        3.502803    1.539284    1.063616
      4          6           0        2.207465    1.968444    0.798552
      5          6           0        1.315408    1.121387    0.142245
      6          6           0        1.695834   -0.177603   -0.222747
      7          6           0        0.656704   -1.048578   -0.821877
      8          8           0        0.062423    1.636210   -0.066366
      9          6           0       -0.559688    1.083533   -1.229558
     10          6           0       -0.680729   -0.428635   -1.146444
     11          6           0       -1.938294    1.723565   -1.386100
     12          6           0       -2.902074    1.245468   -0.302623
     13          7           0       -3.056970   -0.217199   -0.336158
     14          6           0       -1.768078   -0.931903   -0.191087
     15          6           0       -1.484861   -0.892798    1.310388
     16          6           0       -2.868250   -0.926977    1.951456
     17          6           0       -3.853104   -0.683174    0.812091
     18          8           0        0.852360   -2.246450   -1.016641
     19          6           0        3.507396   -1.988213   -0.335911
     20          1           0       -0.943652   -0.771666   -2.158284
     21          1           0        0.046186    1.371064   -2.101210
     22          1           0       -1.953767   -1.984931   -0.452721
     23          1           0        4.921399   -0.056659    0.896395
     24          1           0        4.203093    2.199589    1.569413
     25          1           0        1.892950    2.965512    1.096151
     26          1           0       -2.348058    1.481151   -2.374709
     27          1           0       -1.852766    2.815038   -1.324308
     28          1           0       -2.560556    1.603095    0.677042
     29          1           0       -3.879270    1.709585   -0.483880
     30          1           0       -0.970301    0.021177    1.620243
     31          1           0       -0.875695   -1.742987    1.634780
     32          1           0       -2.947704   -0.149845    2.719422
     33          1           0       -3.058560   -1.894303    2.428687
     34          1           0       -4.656589    0.006444    1.094233
     35          1           0       -4.334795   -1.630343    0.539352
     36          1           0        3.357518   -2.178684   -1.403291
     37          1           0        4.582072   -2.088409   -0.146946
     38          1           0        3.000668   -2.752539    0.261157
 ---------------------------------------------------------------------
 Rotational constants (GHZ):           0.7417970           0.2872070           0.2556397
 Standard basis: STO-3G (5D, 7F)
 There are   114 symmetry adapted cartesian basis functions of A   symmetry.
 There are   114 symmetry adapted basis functions of A   symmetry.
   114 basis functions,   342 primitive gaussians,   114 cartesian basis functions
    69 alpha electrons       69 beta electrons
       nuclear repulsion energy      1515.0249149934 Hartrees.
 NAtoms=   38 NActive=   38 NUniq=   38 SFac= 1.00D+00 NAtFMM=   60 NAOKFM=F Big=F
 Integral buffers will be    131072 words long.
 Raffenetti 1 integral format.
 Two-electron integral symmetry is turned on.
 One-electron integrals computed using PRISM.
 NBasis=   114 RedAO= T EigKep=  1.74D-01  NBF=   114
 NBsUse=   114 1.00D-06 EigRej= -1.00D+00 NBFU=   114
 ExpMin= 1.69D-01 ExpMax= 1.31D+02 ExpMxC= 1.31D+02 IAcc=3 IRadAn=         5 AccDes= 0.00D+00
 Harris functional with IExCor=  205 and IRadAn=       5 diagonalized for initial guess.
 HarFok:  IExCor=  205 AccDes= 0.00D+00 IRadAn=         5 IDoV= 1 UseB2=F ITyADJ=14
 ICtDFT=  3500011 ScaDFX=  1.000000  1.000000  1.000000  1.000000
 FoFCou: FMM=F IPFlag=           0 FMFlag=      100000 FMFlg1=           0
         NFxFlg=           0 DoJE=T BraDBF=F KetDBF=T FulRan=T
         wScrn=  0.000000 ICntrl=       500 IOpCl=  0 I1Cent=   200000004 NGrid=           0
         NMat0=    1 NMatS0=      1 NMatT0=    0 NMatD0=    1 NMtDS0=    0 NMtDT0=    0
 Petite list used in FoFCou.
 Requested convergence on RMS density matrix=1.00D-08 within 128 cycles.
 Requested convergence on MAX density matrix=1.00D-06.
 Requested convergence on             energy=1.00D-06.
 No special actions if energy rises.
 Integral accuracy reduced to 1.0D-05 until final iterations.
 Initial convergence to 1.0D-05 achieved.  Increase integral accuracy.
 SCF Done:  E(RHF) =  -811.058111289     A.U. after   15 cycles
            NFock= 15  Conv=0.98D-08     -V/T= 2.0093
 Range of M.O.s used for correlation:     1   114
 NBasis=   114 NAE=    69 NBE=    69 NFC=     0 NFV=     0
 NROrb=    114 NOA=    69 NOB=    69 NVA=    45 NVB=    45
          Differentiating once with respect to magnetic field using GIAOs.
          Electric field/nuclear overlap derivatives assumed to be zero.
 FoFCou: FMM=F IPFlag=           0 FMFlag=      100000 FMFlg1=           0
         NFxFlg=           0 DoJE=F BraDBF=F KetDBF=T FulRan=T
         wScrn=  0.000000 ICntrl=      6100 IOpCl=  0 I1Cent=           7 NGrid=          38
         NMat0=    1 NMatS0=      1 NMatT0=    0 NMatD0=    1 NMtDS0=    0 NMtDT0=    0
 Symmetry not used in FoFCou.
 FoFJK:  IHMeth= 1 ICntrl=    6127 DoSepK=F KAlg= 0 I1Cent=           0 FoldK=F
 IRaf=         1 NMat=       1 IRICut=       1 DoRegI=T DoRafI=F ISym2E= 0 IDoP0=0 IntGTp=1.
          There are     3 degrees of freedom in the 1st order CPHF.  IDoFFX=0 NUNeed=     3.
      3 vectors produced by pass  0 Test12= 1.04D-13 3.33D-08 XBig12= 2.15D+01 1.34D+00.
 AX will form     3 AO Fock derivatives at one time.
      3 vectors produced by pass  1 Test12= 1.04D-13 3.33D-08 XBig12= 1.31D-01 1.95D-01.
      3 vectors produced by pass  2 Test12= 1.04D-13 3.33D-08 XBig12= 4.53D-03 2.53D-02.
      3 vectors produced by pass  3 Test12= 1.04D-13 3.33D-08 XBig12= 1.32D-04 2.84D-03.
      3 vectors produced by pass  4 Test12= 1.04D-13 3.33D-08 XBig12= 1.85D-06 1.82D-04.
      3 vectors produced by pass  5 Test12= 1.04D-13 3.33D-08 XBig12= 2.03D-08 2.03D-05.
      3 vectors produced by pass  6 Test12= 1.04D-13 3.33D-08 XBig12= 4.03D-10 2.83D-06.
      3 vectors produced by pass  7 Test12= 1.04D-13 3.33D-08 XBig12= 6.30D-12 2.97D-07.
      1 vectors produced by pass  8 Test12= 1.04D-13 3.33D-08 XBig12= 1.08D-13 3.93D-08.
 InvSVY:  IOpt=1 It=  1 EMax= 8.88D-16
 Solved reduced A of dimension    25 with     3 vectors.
 Calculating GIAO nuclear magnetic shielding tensors.
 SCF GIAO Magnetic shielding tensor (ppm):
      1  C    Isotropic =   113.8606   Anisotropy =   169.9051
   XX=    83.3451   YX=    32.5413   ZX=   -34.3602
   XY=    38.0573   YY=    61.6440   ZY=   -52.6855
   XZ=   -33.1388   YZ=   -49.8522   ZZ=   196.5925
   Eigenvalues:    31.8849    82.5661   227.1306
      2  C    Isotropic =   123.5027   Anisotropy =   143.8163
   XX=    54.9345   YX=    35.2711   ZX=   -41.6513
   XY=    32.5071   YY=   120.6388   ZY=   -28.5398
   XZ=   -44.5289   YZ=   -23.1847   ZZ=   194.9347
   Eigenvalues:    34.5046   116.6232   219.3802
      3  C    Isotropic =   117.3866   Anisotropy =   168.5071
   XX=    81.0535   YX=   -17.6890   ZX=   -57.2990
   XY=   -19.0899   YY=    87.2732   ZY=   -64.3568
   XZ=   -59.1620   YZ=   -63.8180   ZZ=   183.8331
   Eigenvalues:    20.0800   102.3551   229.7246
      4  C    Isotropic =   131.1596   Anisotropy =   146.4529
   XX=   123.3392   YX=    29.6997   ZX=   -25.2387
   XY=    28.7683   YY=    71.8100   ZY=   -54.8387
   XZ=   -28.1093   YZ=   -49.2203   ZZ=   198.3295
   Eigenvalues:    48.1165   116.5674   228.7949
      5  C    Isotropic =   104.8627   Anisotropy =   133.8012
   XX=    63.1756   YX=    28.0007   ZX=   -36.7254
   XY=    16.3573   YY=    82.6306   ZY=   -38.0939
   XZ=   -34.1475   YZ=   -32.0955   ZZ=   168.7818
   Eigenvalues:    47.2022    73.3224   194.0635
      6  C    Isotropic =   130.1558   Anisotropy =   152.8879
   XX=    93.6547   YX=    -2.8282   ZX=   -45.8673
   XY=    -5.5052   YY=    95.8662   ZY=   -49.5328
   XZ=   -38.8808   YZ=   -52.4535   ZZ=   200.9465
   Eigenvalues:    59.6647    98.7216   232.0811
      7  C    Isotropic =    90.5081   Anisotropy =   142.3950
   XX=   -15.0309   YX=   -13.6932   ZX=   -77.3797
   XY=   -12.9081   YY=   135.6338   ZY=   -16.8126
   XZ=   -80.8023   YZ=   -19.1441   ZZ=   150.9215
   Eigenvalues:   -48.6576   134.7439   185.4381
      8  O    Isotropic =   345.6412   Anisotropy =    94.3858
   XX=   341.2385   YX=   -25.5379   ZX=   -56.9959
   XY=   -34.8440   YY=   323.5749   ZY=   -61.2409
   XZ=   -35.1063   YZ=   -17.6963   ZZ=   372.1102
   Eigenvalues:   267.0214   361.3372   408.5651
      9  C    Isotropic =   188.4591   Anisotropy =    46.2652
   XX=   185.3150   YX=     2.5992   ZX=    19.6117
   XY=     7.6900   YY=   176.8622   ZY=    12.1572
   XZ=    17.9801   YZ=    12.9941   ZZ=   203.2002
   Eigenvalues:   170.7468   175.3280   219.3026
     10  C    Isotropic =   211.8830   Anisotropy =     9.8733
   XX=   215.4234   YX=    -5.2358   ZX=    -4.0894
   XY=    -3.0456   YY=   205.7863   ZY=    -3.2479
   XZ=    -2.7640   YZ=    -3.9219   ZZ=   214.4391
   Eigenvalues:   202.4792   214.7045   218.4652
     11  C    Isotropic =   217.9586   Anisotropy =    10.5776
   XX=   224.1725   YX=    -2.0653   ZX=    -0.6193
   XY=    -3.6629   YY=   214.8116   ZY=    -3.8735
   XZ=    -2.0659   YZ=    -1.7018   ZZ=   214.8916
   Eigenvalues:   211.3598   217.5056   225.0103
     12  C    Isotropic =   204.1634   Anisotropy =    36.6004
   XX=   194.3219   YX=     3.5152   ZX=    -6.7410
   XY=     5.9969   YY=   226.2237   ZY=    -8.3935
   XZ=    -3.4726   YZ=    -5.7076   ZZ=   191.9444
   Eigenvalues:   187.6868   196.2397   228.5636
     13  N    Isotropic =   284.1159   Anisotropy =    58.4398
   XX=   313.1025   YX=    -6.8329   ZX=   -19.7513
   XY=    -9.1652   YY=   259.2059   ZY=   -20.7189
   XZ=   -21.6837   YZ=   -12.3620   ZZ=   280.0395
   Eigenvalues:   245.4773   283.7947   323.0758
     14  C    Isotropic =   194.2989   Anisotropy =    39.1703
   XX=   214.1034   YX=   -13.5306   ZX=    -0.0689
   XY=   -20.2508   YY=   174.4315   ZY=     2.5768
   XZ=    -4.1222   YZ=    -5.0140   ZZ=   194.3618
   Eigenvalues:   168.0815   194.4028   220.4124
     15  C    Isotropic =   215.9317   Anisotropy =    30.1005
   XX=   226.2379   YX=    -4.6109   ZX=    -5.5863
   XY=     5.0971   YY=   190.6997   ZY=    -2.6073
   XZ=    -8.0348   YZ=    -5.4512   ZZ=   230.8574
   Eigenvalues:   190.2941   221.5022   235.9987
     16  C    Isotropic =   216.2032   Anisotropy =    24.9289
   XX=   232.4684   YX=    -2.7779   ZX=    -1.4671
   XY=    -2.4020   YY=   192.0394   ZY=    -6.2552
   XZ=    -1.8163   YZ=    -7.9241   ZZ=   224.1018
   Eigenvalues:   190.3456   225.4416   232.8225
     17  C    Isotropic =   197.7530   Anisotropy =    50.7937
   XX=   205.8613   YX=     3.3053   ZX=   -12.7137
   XY=    11.8154   YY=   174.6534   ZY=   -17.9319
   XZ=   -18.9334   YZ=   -17.5368   ZZ=   212.7445
   Eigenvalues:   167.6275   194.0161   231.6155
     18  O    Isotropic =  -356.6663   Anisotropy =  1282.0180
   XX=  -310.7370   YX=   177.1820   ZX=  -252.6598
   XY=   180.4083   YY= -1084.1780   ZY=  -285.4567
   XZ=  -264.1437   YZ=  -347.7258   ZZ=   324.9161
   Eigenvalues: -1170.1158  -397.8954   498.0124
     19  C    Isotropic =   218.1587   Anisotropy =    23.6693
   XX=   216.7036   YX=    -6.1457   ZX=     0.6986
   XY=    -6.2673   YY=   229.5426   ZY=     7.9228
   XZ=    -0.6501   YZ=     7.0001   ZZ=   208.2297
   Eigenvalues:   205.5152   215.0225   233.9382
     20  H    Isotropic =    30.5614   Anisotropy =    13.9013
   XX=    25.7718   YX=     0.1254   ZX=    -1.1669
   XY=    -0.0086   YY=    28.6615   ZY=     4.8101
   XZ=     2.2574   YZ=     5.8725   ZZ=    37.2509
   Eigenvalues:    25.6747    26.1806    39.8290
     21  H    Isotropic =    31.3119   Anisotropy =    11.5468
   XX=    30.6614   YX=     1.9439   ZX=    -4.5601
   XY=     0.5518   YY=    27.4280   ZY=    -3.0082
   XZ=    -2.0127   YZ=    -5.2413   ZZ=    35.8462
   Eigenvalues:    25.7420    29.1839    39.0098
     22  H    Isotropic =    30.9812   Anisotropy =    12.9311
   XX=    27.6463   YX=     0.4503   ZX=    -1.2581
   XY=     2.2671   YY=    38.2312   ZY=     4.8830
   XZ=    -2.9053   YZ=     3.2858   ZZ=    27.0659
   Eigenvalues:    24.0957    29.2459    39.6019
     23  H    Isotropic =    25.8766   Anisotropy =     5.8224
   XX=    26.9743   YX=     0.3985   ZX=     1.8916
   XY=     0.4976   YY=    27.9520   ZY=     2.8652
   XZ=     1.7420   YZ=     2.9305   ZZ=    22.7036
   Eigenvalues:    21.0394    26.8322    29.7582
     24  H    Isotropic =    25.3110   Anisotropy =     3.7563
   XX=    27.1715   YX=    -0.8058   ZX=     1.4202
   XY=    -1.1080   YY=    26.2872   ZY=     1.4898
   XZ=     1.3922   YZ=     1.7114   ZZ=    22.4743
   Eigenvalues:    21.4165    26.7013    27.8152
     25  H    Isotropic =    25.7328   Anisotropy =     7.3725
   XX=    28.1660   YX=     1.2579   ZX=     2.9228
   XY=     0.9598   YY=    26.7670   ZY=     2.7035
   XZ=     2.6914   YZ=     3.1854   ZZ=    22.2655
   Eigenvalues:    20.2475    26.3031    30.6478
     26  H    Isotropic =    31.7202   Anisotropy =    14.4596
   XX=    29.5581   YX=    -0.9643   ZX=     4.2981
   XY=    -0.7241   YY=    26.6460   ZY=    -1.7371
   XZ=     5.5318   YZ=    -2.1313   ZZ=    38.9566
   Eigenvalues:    26.3431    27.4576    41.3600
     27  H    Isotropic =    31.5034   Anisotropy =    14.9616
   XX=    28.1362   YX=    -0.6170   ZX=    -0.1862
   XY=    -0.8385   YY=    40.9517   ZY=    -3.0185
   XZ=     0.5977   YZ=    -2.5471   ZZ=    25.4221
   Eigenvalues:    24.9366    28.0957    41.4777
     28  H    Isotropic =    31.9846   Anisotropy =     7.2047
   XX=    28.9194   YX=     0.1766   ZX=    -0.4889
   XY=     0.8118   YY=    33.1820   ZY=     3.1802
   XZ=    -1.6428   YZ=     3.2709   ZZ=    33.8525
   Eigenvalues:    28.3021    30.8640    36.7878
     29  H    Isotropic =    31.5777   Anisotropy =    14.5755
   XX=    37.2666   YX=    -5.7975   ZX=    -0.1718
   XY=    -6.3640   YY=    31.7110   ZY=    -3.0215
   XZ=    -0.2096   YZ=    -2.5664   ZZ=    25.7556
   Eigenvalues:    24.0467    29.3917    41.2947
     30  H    Isotropic =    32.5545   Anisotropy =    10.4578
   XX=    34.3769   YX=     5.6097   ZX=     1.2823
   XY=     7.5382   YY=    31.0354   ZY=     0.6440
   XZ=    -1.6726   YZ=     1.5482   ZZ=    32.2513
   Eigenvalues:    25.7730    32.3641    39.5264
     31  H    Isotropic =    33.1153   Anisotropy =    12.5159
   XX=    34.9347   YX=    -6.0318   ZX=     1.7557
   XY=    -4.3590   YY=    33.1755   ZY=    -5.8421
   XZ=    -0.4906   YZ=    -6.1336   ZZ=    31.2358
   Eigenvalues:    25.1416    32.7451    41.4592
     32  H    Isotropic =    32.1966   Anisotropy =    13.8084
   XX=    28.9146   YX=    -1.0841   ZX=    -2.4981
   XY=    -0.5105   YY=    29.5976   ZY=     5.2172
   XZ=    -3.2886   YZ=     5.5844   ZZ=    38.0774
   Eigenvalues:    26.7730    28.4145    41.4022
     33  H    Isotropic =    32.2770   Anisotropy =    15.9142
   XX=    29.5078   YX=     2.6649   ZX=    -2.2913
   XY=     2.9001   YY=    34.7078   ZY=    -7.9268
   XZ=    -2.9868   YZ=    -8.1922   ZZ=    32.6153
   Eigenvalues:    25.5276    28.4170    42.8864
     34  H    Isotropic =    31.7178   Anisotropy =    13.9913
   XX=    38.5789   YX=    -4.3542   ZX=    -3.3818
   XY=    -3.4828   YY=    28.4266   ZY=    -0.6150
   XZ=    -4.7842   YZ=     0.1700   ZZ=    28.1477
   Eigenvalues:    25.5881    28.5199    41.0453
     35  H    Isotropic =    31.4241   Anisotropy =    15.0647
   XX=    33.8683   YX=     7.5074   ZX=     1.5229
   XY=     7.9443   YY=    33.5095   ZY=     0.9742
   XZ=     0.2143   YZ=    -0.3004   ZZ=    26.8945
   Eigenvalues:    25.8293    26.9758    41.4672
     36  H    Isotropic =    31.1287   Anisotropy =    10.5601
   XX=    29.3506   YX=    -2.1748   ZX=     1.5081
   XY=    -1.0464   YY=    29.0451   ZY=     3.9380
   XZ=    -0.4763   YZ=     6.7951   ZZ=    34.9903
   Eigenvalues:    25.2221    29.9952    38.1688
     37  H    Isotropic =    30.9938   Anisotropy =    12.2566
   XX=    38.2109   YX=    -2.5211   ZX=     2.4184
   XY=    -2.8921   YY=    29.6798   ZY=     1.5377
   XZ=     1.7848   YZ=     2.1297   ZZ=    25.0906
   Eigenvalues:    23.8487    29.9678    39.1648
     38  H    Isotropic =    30.8190   Anisotropy =    11.0473
   XX=    29.8659   YX=     2.7282   ZX=    -1.4012
   XY=     1.3686   YY=    36.3694   ZY=    -2.3990
   XZ=    -0.1752   YZ=    -5.1053   ZZ=    26.2218
   Eigenvalues:    24.9825    29.2906    38.1839
 End of Minotr F.D. properties file   721 does not exist.
 End of Minotr F.D. properties file   722 does not exist.
 End of Minotr F.D. properties file   788 does not exist.

 **********************************************************************

            Population analysis using the SCF Density.

 **********************************************************************

 Orbital symmetries:
       Occupied  (A) (A) (A) (A) (A) (A) (A) (A) (A) (A) (A) (A)
                 (A) (A) (A) (A) (A) (A) (A) (A) (A) (A) (A) (A)
                 (A) (A) (A) (A) (A) (A) (A) (A) (A) (A) (A) (A)
                 (A) (A) (A) (A) (A) (A) (A) (A) (A) (A) (A) (A)
                 (A) (A) (A) (A) (A) (A) (A) (A) (A) (A) (A) (A)
                 (A) (A) (A) (A) (A) (A) (A) (A) (A)
       Virtual   (A) (A) (A) (A) (A) (A) (A) (A) (A) (A) (A) (A)
                 (A) (A) (A) (A) (A) (A) (A) (A) (A) (A) (A) (A)
                 (A) (A) (A) (A) (A) (A) (A) (A) (A) (A) (A) (A)
                 (A) (A) (A) (A) (A) (A) (A) (A) (A)
 The electronic state is 1-A.
 Alpha  occ. eigenvalues --  -20.29887 -20.26300 -15.31241 -11.11679 -11.11289
 Alpha  occ. eigenvalues --  -11.09818 -11.07946 -11.07135 -11.06491 -11.06489
 Alpha  occ. eigenvalues --  -11.05425 -11.05366 -11.04424 -11.04136 -11.03856
 Alpha  occ. eigenvalues --  -11.03802 -11.03091 -11.02449 -11.02114  -1.34735
 Alpha  occ. eigenvalues --   -1.31570  -1.19660  -1.09966  -1.04994  -1.02463
 Alpha  occ. eigenvalues --   -0.99255  -0.97823  -0.95185  -0.92047  -0.88567
 Alpha  occ. eigenvalues --   -0.84220  -0.80751  -0.78083  -0.75028  -0.74668
 Alpha  occ. eigenvalues --   -0.71526  -0.67629  -0.65796  -0.64566  -0.62138
 Alpha  occ. eigenvalues --   -0.61351  -0.60551  -0.58526  -0.56534  -0.55428
 Alpha  occ. eigenvalues --   -0.55302  -0.54714  -0.53582  -0.52963  -0.51768
 Alpha  occ. eigenvalues --   -0.51350  -0.49933  -0.49551  -0.47737  -0.47291
 Alpha  occ. eigenvalues --   -0.46224  -0.45209  -0.44753  -0.44168  -0.43191
 Alpha  occ. eigenvalues --   -0.42268  -0.41576  -0.39978  -0.38656  -0.36543
 Alpha  occ. eigenvalues --   -0.31445  -0.28555  -0.27445  -0.24849
 Alpha virt. eigenvalues --    0.21032   0.26669   0.34382   0.48992   0.51639
 Alpha virt. eigenvalues --    0.53321   0.54998   0.56400   0.57268   0.59854
 Alpha virt. eigenvalues --    0.60293   0.61560   0.62158   0.63410   0.64534
 Alpha virt. eigenvalues --    0.66385   0.67237   0.68217   0.68541   0.69158
 Alpha virt. eigenvalues --    0.70071   0.71435   0.72185   0.73507   0.73552
 Alpha virt. eigenvalues --    0.73959   0.74878   0.75759   0.76043   0.77475
 Alpha virt. eigenvalues --    0.77777   0.78839   0.78957   0.80714   0.81452
 Alpha virt. eigenvalues --    0.82350   0.83573   0.86029   0.86844   0.86885
 Alpha virt. eigenvalues --    0.90674   0.93180   1.00461   1.11699   1.13398
          Condensed to atoms (all electrons):
               1          2          3          4          5          6
     1  C    4.758175   0.505273  -0.028642  -0.009958  -0.028025   0.497165
     2  C    0.505273   4.806512   0.504286  -0.031433  -0.011414  -0.031199
     3  C   -0.028642   0.504286   4.759307   0.508590  -0.029415  -0.009519
     4  C   -0.009958  -0.031433   0.508590   4.806546   0.499714  -0.032193
     5  C   -0.028025  -0.011414  -0.029415   0.499714   4.756461   0.489623
     6  C    0.497165  -0.031199  -0.009519  -0.032193   0.489623   4.871368
     7  C   -0.023421   0.000767   0.000018   0.000795  -0.029555   0.389603
     8  O    0.000248   0.000008   0.000353  -0.026996   0.293283  -0.017152
     9  C    0.000032   0.000000  -0.000021   0.001666  -0.041445  -0.007783
    10  C    0.000617  -0.000007  -0.000000  -0.000037  -0.004406  -0.034566
    11  C    0.000000   0.000000   0.000000  -0.000014   0.001616   0.000001
    12  C    0.000000  -0.000000   0.000000  -0.000000   0.000006  -0.000000
    13  N    0.000000  -0.000000  -0.000000  -0.000000  -0.000001  -0.000003
    14  C   -0.000005   0.000000   0.000000  -0.000000   0.000045   0.000375
    15  C   -0.000002   0.000000   0.000000  -0.000001  -0.000137  -0.000018
    16  C    0.000000  -0.000000  -0.000000   0.000000   0.000001   0.000001
    17  C   -0.000000   0.000000   0.000000  -0.000000  -0.000000   0.000000
    18  O   -0.001019  -0.000004  -0.000000  -0.000002   0.000314  -0.027268
    19  C    0.381500  -0.030163   0.000876   0.000011   0.000717  -0.024121
    20  H   -0.000017   0.000000  -0.000000   0.000002   0.000035   0.001032
    21  H   -0.000012  -0.000001  -0.000000   0.000134  -0.003805   0.000591
    22  H   -0.000000   0.000000  -0.000000   0.000000  -0.000004   0.000011
    23  H   -0.025046   0.394156  -0.026798   0.001419   0.000049   0.001263
    24  H    0.001318  -0.024809   0.393586  -0.025144   0.001375   0.000008
    25  H    0.000035   0.001380  -0.024598   0.393460  -0.025279   0.001231
    26  H   -0.000000   0.000000  -0.000000   0.000000  -0.000037  -0.000001
    27  H   -0.000000   0.000000   0.000000  -0.000002   0.000036   0.000001
    28  H   -0.000000  -0.000000  -0.000000   0.000001  -0.000028   0.000000
    29  H    0.000000   0.000000   0.000000  -0.000000   0.000000  -0.000000
    30  H    0.000002  -0.000000  -0.000000  -0.000011  -0.000185  -0.000130
    31  H   -0.000001   0.000000   0.000000   0.000000  -0.000004  -0.000049
    32  H   -0.000000  -0.000000  -0.000000   0.000000   0.000000   0.000000
    33  H   -0.000000   0.000000   0.000000  -0.000000  -0.000000   0.000000
    34  H    0.000000  -0.000000  -0.000000  -0.000000   0.000000  -0.000000
    35  H   -0.000000   0.000000  -0.000000   0.000000  -0.000000   0.000000
    36  H   -0.021091   0.000878  -0.000023   0.000002   0.000004  -0.002197
    37  H   -0.020569  -0.005607   0.000060  -0.000000  -0.000016   0.001131
    38  H   -0.021142   0.000525  -0.000023   0.000003  -0.000003  -0.001499
               7          8          9         10         11         12
     1  C   -0.023421   0.000248   0.000032   0.000617   0.000000   0.000000
     2  C    0.000767   0.000008   0.000000  -0.000007   0.000000  -0.000000
     3  C    0.000018   0.000353  -0.000021  -0.000000   0.000000   0.000000
     4  C    0.000795  -0.026996   0.001666  -0.000037  -0.000014  -0.000000
     5  C   -0.029555   0.293283  -0.041445  -0.004406   0.001616   0.000006
     6  C    0.389603  -0.017152  -0.007783  -0.034566   0.000001  -0.000000
     7  C    4.765951  -0.002058  -0.023486   0.357754   0.000730  -0.000002
     8  O   -0.002058   7.800725   0.261688  -0.016928  -0.018761  -0.000546
     9  C   -0.023486   0.261688   4.740699   0.357878   0.360379  -0.022868
    10  C    0.357754  -0.016928   0.357878   4.817563  -0.024828  -0.004929
    11  C    0.000730  -0.018761   0.360379  -0.024828   4.751865   0.362093
    12  C   -0.000002  -0.000546  -0.022868  -0.004929   0.362093   4.712087
    13  N    0.000383   0.000019  -0.002467  -0.016517  -0.020264   0.323549
    14  C   -0.021874  -0.000007  -0.020367   0.358759  -0.004630  -0.031343
    15  C   -0.002344  -0.000455  -0.000385  -0.019340   0.000021  -0.001396
    16  C    0.000011   0.000001  -0.000006   0.000779  -0.000016  -0.000373
    17  C   -0.000009  -0.000000   0.000013   0.001106   0.001085  -0.034787
    18  O    0.431958   0.000000   0.000326  -0.026513  -0.000001  -0.000000
    19  C   -0.002606  -0.000001  -0.000000   0.000007  -0.000000  -0.000000
    20  H   -0.022754   0.000596  -0.023116   0.379316  -0.001117   0.000059
    21  H   -0.001262  -0.018858   0.377770  -0.025451  -0.024336   0.001264
    22  H   -0.001153  -0.000009   0.001208  -0.024729   0.000031   0.001698
    23  H   -0.000014   0.000000  -0.000000   0.000000   0.000000   0.000000
    24  H    0.000001  -0.000005   0.000000  -0.000000  -0.000000  -0.000000
    25  H   -0.000018  -0.001093   0.000035   0.000000  -0.000003  -0.000000
    26  H    0.000009   0.000573  -0.020713  -0.001142   0.382314  -0.021775
    27  H   -0.000018  -0.000920  -0.021300   0.001259   0.382068  -0.021322
    28  H   -0.000003   0.000271  -0.001876   0.000073  -0.024478   0.378222
    29  H    0.000001  -0.000003   0.001290   0.000023  -0.021346   0.383110
    30  H   -0.000055   0.000247   0.000134  -0.002415   0.000040  -0.000452
    31  H    0.000068   0.000011  -0.000001   0.000156  -0.000002   0.000003
    32  H   -0.000000   0.000001   0.000001  -0.000020   0.000001  -0.000096
    33  H   -0.000000  -0.000000  -0.000000  -0.000009   0.000000  -0.000007
    34  H    0.000000   0.000000  -0.000000  -0.000022   0.000046  -0.005047
    35  H   -0.000000   0.000000  -0.000001  -0.000000  -0.000024   0.001850
    36  H   -0.000081  -0.000000  -0.000000  -0.000003  -0.000000   0.000000
    37  H    0.000015   0.000000   0.000000   0.000000   0.000000   0.000000
    38  H   -0.000048  -0.000000  -0.000000  -0.000002   0.000000  -0.000000
              13         14         15         16         17         18
     1  C    0.000000  -0.000005  -0.000002   0.000000  -0.000000  -0.001019
     2  C   -0.000000   0.000000   0.000000  -0.000000   0.000000  -0.000004
     3  C   -0.000000   0.000000   0.000000  -0.000000   0.000000  -0.000000
     4  C   -0.000000  -0.000000  -0.000001   0.000000  -0.000000  -0.000002
     5  C   -0.000001   0.000045  -0.000137   0.000001  -0.000000   0.000314
     6  C   -0.000003   0.000375  -0.000018   0.000001   0.000000  -0.027268
     7  C    0.000383  -0.021874  -0.002344   0.000011  -0.000009   0.431958
     8  O    0.000019  -0.000007  -0.000455   0.000001  -0.000000   0.000000
     9  C   -0.002467  -0.020367  -0.000385  -0.000006   0.000013   0.000326
    10  C   -0.016517   0.358759  -0.019340   0.000779   0.001106  -0.026513
    11  C   -0.020264  -0.004630   0.000021  -0.000016   0.001085  -0.000001
    12  C    0.323549  -0.031343  -0.001396  -0.000373  -0.034787  -0.000000
    13  N    6.510145   0.324088  -0.034550  -0.031146   0.329488  -0.000000
    14  C    0.324088   4.743976   0.360277  -0.034685  -0.047748  -0.000799
    15  C   -0.034550   0.360277   4.786541   0.364190  -0.033251  -0.000020
    16  C   -0.031146  -0.034685   0.364190   4.772689   0.359377   0.000000
    17  C    0.329488  -0.047748  -0.033251   0.359377   4.730015  -0.000000
    18  O   -0.000000  -0.000799  -0.000020   0.000000  -0.000000   7.856636
    19  C    0.000000  -0.000000  -0.000000  -0.000000  -0.000000  -0.001561
    20  H   -0.000467  -0.021764   0.001142  -0.000019  -0.000003  -0.001578
    21  H   -0.000002   0.001160  -0.000012   0.000000   0.000001   0.000000
    22  H   -0.023453   0.383131  -0.027449  -0.001126  -0.001245   0.000267
    23  H    0.000000  -0.000000  -0.000000  -0.000000  -0.000000   0.000000
    24  H    0.000000  -0.000000  -0.000000   0.000000  -0.000000  -0.000000
    25  H    0.000000  -0.000000  -0.000000   0.000000  -0.000000   0.000000
    26  H   -0.000865   0.000083   0.000001  -0.000001   0.000007  -0.000000
    27  H    0.000855   0.000005  -0.000001   0.000001  -0.000024   0.000000
    28  H   -0.020657  -0.001726   0.000073   0.000610  -0.003455   0.000000
    29  H   -0.021544   0.001656  -0.000025  -0.000061  -0.002244  -0.000000
    30  H   -0.000087  -0.020684   0.383545  -0.022337   0.001030   0.000004
    31  H    0.001081  -0.019509   0.383555  -0.020020   0.001349  -0.000051
    32  H    0.000624   0.001400  -0.021561   0.384489  -0.021173   0.000000
    33  H    0.000983   0.000903  -0.020946   0.384410  -0.020846   0.000000
    34  H   -0.015511   0.001817   0.001259  -0.020496   0.383093   0.000000
    35  H   -0.024113  -0.000160   0.000415  -0.025014   0.381866   0.000000
    36  H   -0.000000  -0.000000  -0.000000   0.000000  -0.000000  -0.000286
    37  H    0.000000   0.000000  -0.000000   0.000000  -0.000000   0.000061
    38  H   -0.000000   0.000000   0.000000  -0.000000   0.000000  -0.000378
              19         20         21         22         23         24
     1  C    0.381500  -0.000017  -0.000012  -0.000000  -0.025046   0.001318
     2  C   -0.030163   0.000000  -0.000001   0.000000   0.394156  -0.024809
     3  C    0.000876  -0.000000  -0.000000  -0.000000  -0.026798   0.393586
     4  C    0.000011   0.000002   0.000134   0.000000   0.001419  -0.025144
     5  C    0.000717   0.000035  -0.003805  -0.000004   0.000049   0.001375
     6  C   -0.024121   0.001032   0.000591   0.000011   0.001263   0.000008
     7  C   -0.002606  -0.022754  -0.001262  -0.001153  -0.000014   0.000001
     8  O   -0.000001   0.000596  -0.018858  -0.000009   0.000000  -0.000005
     9  C   -0.000000  -0.023116   0.377770   0.001208  -0.000000   0.000000
    10  C    0.000007   0.379316  -0.025451  -0.024729   0.000000  -0.000000
    11  C   -0.000000  -0.001117  -0.024336   0.000031   0.000000  -0.000000
    12  C   -0.000000   0.000059   0.001264   0.001698   0.000000  -0.000000
    13  N    0.000000  -0.000467  -0.000002  -0.023453   0.000000   0.000000
    14  C   -0.000000  -0.021764   0.001160   0.383131  -0.000000  -0.000000
    15  C   -0.000000   0.001142  -0.000012  -0.027449  -0.000000  -0.000000
    16  C   -0.000000  -0.000019   0.000000  -0.001126  -0.000000   0.000000
    17  C   -0.000000  -0.000003   0.000001  -0.001245  -0.000000  -0.000000
    18  O   -0.001561  -0.001578   0.000000   0.000267   0.000000  -0.000000
    19  C    4.713081  -0.000000  -0.000000   0.000000  -0.004226  -0.000016
    20  H   -0.000000   0.620550  -0.003421  -0.004877  -0.000000   0.000000
    21  H   -0.000000  -0.003421   0.644590  -0.000032  -0.000000   0.000000
    22  H    0.000000  -0.004877  -0.000032   0.635567  -0.000000   0.000000
    23  H   -0.004226  -0.000000  -0.000000  -0.000000   0.604591  -0.003748
    24  H   -0.000016   0.000000   0.000000   0.000000  -0.003748   0.593763
    25  H    0.000000   0.000000   0.000001  -0.000000  -0.000032  -0.003705
    26  H    0.000000  -0.000059  -0.002689  -0.000017  -0.000000   0.000000
    27  H   -0.000000   0.000010  -0.001726   0.000003   0.000000  -0.000000
    28  H    0.000000   0.000005   0.000002  -0.000053  -0.000000   0.000000
    29  H    0.000000  -0.000008  -0.000030  -0.000034   0.000000  -0.000000
    30  H    0.000000   0.000005  -0.000004   0.001854   0.000000   0.000000
    31  H    0.000000  -0.000013   0.000000  -0.004393   0.000000   0.000000
    32  H   -0.000000   0.000001  -0.000000  -0.000011  -0.000000   0.000000
    33  H   -0.000000   0.000001   0.000000   0.000088  -0.000000  -0.000000
    34  H    0.000000  -0.000000  -0.000000   0.000002   0.000000  -0.000000
    35  H    0.000000   0.000001  -0.000000   0.000312  -0.000000   0.000000
    36  H    0.380844   0.000001   0.000000   0.000000   0.000066   0.000000
    37  H    0.382745  -0.000000  -0.000000  -0.000000   0.000173  -0.000003
    38  H    0.380590   0.000000  -0.000000  -0.000000   0.000074   0.000000
              25         26         27         28         29         30
     1  C    0.000035  -0.000000  -0.000000  -0.000000   0.000000   0.000002
     2  C    0.001380   0.000000   0.000000  -0.000000   0.000000  -0.000000
     3  C   -0.024598  -0.000000   0.000000  -0.000000   0.000000  -0.000000
     4  C    0.393460   0.000000  -0.000002   0.000001  -0.000000  -0.000011
     5  C   -0.025279  -0.000037   0.000036  -0.000028   0.000000  -0.000185
     6  C    0.001231  -0.000001   0.000001   0.000000  -0.000000  -0.000130
     7  C   -0.000018   0.000009  -0.000018  -0.000003   0.000001  -0.000055
     8  O   -0.001093   0.000573  -0.000920   0.000271  -0.000003   0.000247
     9  C    0.000035  -0.020713  -0.021300  -0.001876   0.001290   0.000134
    10  C    0.000000  -0.001142   0.001259   0.000073   0.000023  -0.002415
    11  C   -0.000003   0.382314   0.382068  -0.024478  -0.021346   0.000040
    12  C   -0.000000  -0.021775  -0.021322   0.378222   0.383110  -0.000452
    13  N    0.000000  -0.000865   0.000855  -0.020657  -0.021544  -0.000087
    14  C   -0.000000   0.000083   0.000005  -0.001726   0.001656  -0.020684
    15  C   -0.000000   0.000001  -0.000001   0.000073  -0.000025   0.383545
    16  C    0.000000  -0.000001   0.000001   0.000610  -0.000061  -0.022337
    17  C   -0.000000   0.000007  -0.000024  -0.003455  -0.002244   0.001030
    18  O    0.000000  -0.000000   0.000000   0.000000  -0.000000   0.000004
    19  C    0.000000   0.000000  -0.000000   0.000000   0.000000   0.000000
    20  H    0.000000  -0.000059   0.000010   0.000005  -0.000008   0.000005
    21  H    0.000001  -0.002689  -0.001726   0.000002  -0.000030  -0.000004
    22  H   -0.000000  -0.000017   0.000003  -0.000053  -0.000034   0.001854
    23  H   -0.000032  -0.000000   0.000000  -0.000000   0.000000   0.000000
    24  H   -0.003705   0.000000  -0.000000   0.000000  -0.000000   0.000000
    25  H    0.589350   0.000000  -0.000000   0.000000  -0.000000  -0.000000
    26  H    0.000000   0.620804  -0.021409   0.001904  -0.003007  -0.000001
    27  H   -0.000000  -0.021409   0.621273  -0.002374  -0.001919   0.000000
    28  H    0.000000   0.001904  -0.002374   0.651955  -0.026314  -0.000727
    29  H   -0.000000  -0.003007  -0.001919  -0.026314   0.629335   0.000008
    30  H   -0.000000  -0.000001   0.000000  -0.000727   0.000008   0.629536
    31  H    0.000000   0.000000  -0.000000  -0.000003   0.000001  -0.023574
    32  H    0.000000  -0.000000  -0.000000  -0.000240   0.000018  -0.007226
    33  H   -0.000000   0.000000  -0.000000  -0.000009  -0.000001   0.001737
    34  H    0.000000   0.000000  -0.000002  -0.000172  -0.000014  -0.000039
    35  H    0.000000  -0.000000   0.000001  -0.000039   0.000070  -0.000029
    36  H   -0.000000  -0.000000   0.000000   0.000000  -0.000000  -0.000000
    37  H    0.000000  -0.000000  -0.000000  -0.000000   0.000000   0.000000
    38  H   -0.000000   0.000000  -0.000000  -0.000000   0.000000   0.000000
              31         32         33         34         35         36
     1  C   -0.000001  -0.000000  -0.000000   0.000000  -0.000000  -0.021091
     2  C    0.000000  -0.000000   0.000000  -0.000000   0.000000   0.000878
     3  C    0.000000  -0.000000   0.000000  -0.000000  -0.000000  -0.000023
     4  C    0.000000   0.000000  -0.000000  -0.000000   0.000000   0.000002
     5  C   -0.000004   0.000000  -0.000000   0.000000  -0.000000   0.000004
     6  C   -0.000049   0.000000   0.000000  -0.000000   0.000000  -0.002197
     7  C    0.000068  -0.000000  -0.000000   0.000000  -0.000000  -0.000081
     8  O    0.000011   0.000001  -0.000000   0.000000   0.000000  -0.000000
     9  C   -0.000001   0.000001  -0.000000  -0.000000  -0.000001  -0.000000
    10  C    0.000156  -0.000020  -0.000009  -0.000022  -0.000000  -0.000003
    11  C   -0.000002   0.000001   0.000000   0.000046  -0.000024  -0.000000
    12  C    0.000003  -0.000096  -0.000007  -0.005047   0.001850   0.000000
    13  N    0.001081   0.000624   0.000983  -0.015511  -0.024113  -0.000000
    14  C   -0.019509   0.001400   0.000903   0.001817  -0.000160  -0.000000
    15  C    0.383555  -0.021561  -0.020946   0.001259   0.000415  -0.000000
    16  C   -0.020020   0.384489   0.384410  -0.020496  -0.025014   0.000000
    17  C    0.001349  -0.021173  -0.020846   0.383093   0.381866  -0.000000
    18  O   -0.000051   0.000000   0.000000   0.000000   0.000000  -0.000286
    19  C    0.000000  -0.000000  -0.000000   0.000000   0.000000   0.380844
    20  H   -0.000013   0.000001   0.000001  -0.000000   0.000001   0.000001
    21  H    0.000000  -0.000000   0.000000  -0.000000  -0.000000   0.000000
    22  H   -0.004393  -0.000011   0.000088   0.000002   0.000312   0.000000
    23  H    0.000000  -0.000000  -0.000000   0.000000  -0.000000   0.000066
    24  H    0.000000   0.000000  -0.000000  -0.000000   0.000000   0.000000
    25  H    0.000000   0.000000  -0.000000   0.000000   0.000000  -0.000000
    26  H    0.000000  -0.000000   0.000000   0.000000  -0.000000  -0.000000
    27  H   -0.000000  -0.000000  -0.000000  -0.000002   0.000001   0.000000
    28  H   -0.000003  -0.000240  -0.000009  -0.000172  -0.000039   0.000000
    29  H    0.000001   0.000018  -0.000001  -0.000014   0.000070  -0.000000
    30  H   -0.023574  -0.007226   0.001737  -0.000039  -0.000029  -0.000000
    31  H    0.629251   0.001260  -0.006009  -0.000021  -0.000006  -0.000000
    32  H    0.001260   0.635488  -0.023433  -0.005310   0.001796   0.000000
    33  H   -0.006009  -0.023433   0.632557   0.001201  -0.006361  -0.000000
    34  H   -0.000021  -0.005310   0.001201   0.622027  -0.024084   0.000000
    35  H   -0.000006   0.001796  -0.006361  -0.024084   0.635417   0.000000
    36  H   -0.000000   0.000000  -0.000000   0.000000   0.000000   0.608717
    37  H   -0.000000  -0.000000  -0.000000   0.000000  -0.000000  -0.022208
    38  H    0.000001  -0.000000   0.000000  -0.000000  -0.000000  -0.018411
              37         38
     1  C   -0.020569  -0.021142
     2  C   -0.005607   0.000525
     3  C    0.000060  -0.000023
     4  C   -0.000000   0.000003
     5  C   -0.000016  -0.000003
     6  C    0.001131  -0.001499
     7  C    0.000015  -0.000048
     8  O    0.000000  -0.000000
     9  C    0.000000  -0.000000
    10  C    0.000000  -0.000002
    11  C    0.000000   0.000000
    12  C    0.000000  -0.000000
    13  N    0.000000  -0.000000
    14  C    0.000000   0.000000
    15  C   -0.000000   0.000000
    16  C    0.000000  -0.000000
    17  C   -0.000000   0.000000
    18  O    0.000061  -0.000378
    19  C    0.382745   0.380590
    20  H   -0.000000   0.000000
    21  H   -0.000000  -0.000000
    22  H   -0.000000  -0.000000
    23  H    0.000173   0.000074
    24  H   -0.000003   0.000000
    25  H    0.000000  -0.000000
    26  H   -0.000000   0.000000
    27  H   -0.000000  -0.000000
    28  H   -0.000000  -0.000000
    29  H    0.000000   0.000000
    30  H    0.000000   0.000000
    31  H   -0.000000   0.000001
    32  H   -0.000000  -0.000000
    33  H   -0.000000   0.000000
    34  H    0.000000  -0.000000
    35  H   -0.000000  -0.000000
    36  H   -0.022208  -0.018411
    37  H    0.624671  -0.021688
    38  H   -0.021688   0.604331
 Mulliken charges:
               1
     1  C    0.034584
     2  C   -0.079149
     3  C   -0.048038
     4  C   -0.086550
     5  C    0.130479
     6  C   -0.065705
     7  C    0.182699
     8  O   -0.254229
     9  C    0.082714
    10  C   -0.073427
    11  C   -0.102472
    12  C   -0.018995
    13  N   -0.279568
    14  C    0.047628
    15  C   -0.119128
    16  C   -0.111262
    17  C   -0.023644
    18  O   -0.230088
    19  C   -0.177677
    20  H    0.076460
    21  H    0.056127
    22  H    0.064411
    23  H    0.058073
    24  H    0.067378
    25  H    0.069236
    26  H    0.066020
    27  H    0.065508
    28  H    0.049040
    29  H    0.061037
    30  H    0.059813
    31  H    0.056921
    32  H    0.053991
    33  H    0.055741
    34  H    0.061273
    35  H    0.058104
    36  H    0.073788
    37  H    0.061235
    38  H    0.077671
 Sum of Mulliken charges =   0.00000
 Mulliken charges with hydrogens summed into heavy atoms:
               1
     1  C    0.034584
     2  C   -0.021075
     3  C    0.019340
     4  C   -0.017315
     5  C    0.130479
     6  C   -0.065705
     7  C    0.182699
     8  O   -0.254229
     9  C    0.138841
    10  C    0.003034
    11  C    0.029056
    12  C    0.091081
    13  N   -0.279568
    14  C    0.112039
    15  C   -0.002394
    16  C   -0.001530
    17  C    0.095733
    18  O   -0.230088
    19  C    0.035017
 Electronic spatial extent (au):  <R**2>=           4689.3717
 Charge=              0.0000 electrons
 Dipole moment (field-independent basis, Debye):
    X=              0.4038    Y=              1.2359    Z=              0.4588  Tot=              1.3788
 Quadrupole moment (field-independent basis, Debye-Ang):
   XX=           -102.8290   YY=           -108.7399   ZZ=           -104.0929
   XY=             -0.1462   XZ=             -1.6930   YZ=             -2.8844
 Traceless Quadrupole moment (field-independent basis, Debye-Ang):
   XX=              2.3916   YY=             -3.5193   ZZ=              1.1277
   XY=             -0.1462   XZ=             -1.6930   YZ=             -2.8844
 Octapole moment (field-independent basis, Debye-Ang**2):
  XXX=             23.4150  YYY=              8.5557  ZZZ=            -13.3225  XYY=             -6.0003
  XXY=              4.3980  XXZ=             17.3353  XZZ=             -0.7797  YZZ=              3.0108
  YYZ=              7.1104  XYZ=              5.0045
 Hexadecapole moment (field-independent basis, Debye-Ang**3):
 XXXX=          -3976.0930 YYYY=          -1218.9594 ZZZZ=           -711.0680 XXXY=            -39.5063
 XXXZ=            -19.2938 YYYX=             15.8678 YYYZ=             -5.2849 ZZZX=             -4.2226
 ZZZY=             14.0446 XXYY=           -845.6557 XXZZ=           -802.3560 YYZZ=           -316.4695
 XXYZ=             10.1457 YYXZ=             15.4052 ZZXY=             -2.9782
 N-N= 1.515024914993D+03 E-N=-4.925241211222D+03  KE= 8.035762251987D+02
 ******************************Gaussian NBO Version 3.1******************************
             N A T U R A L   A T O M I C   O R B I T A L   A N D
          N A T U R A L   B O N D   O R B I T A L   A N A L Y S I S
 ******************************Gaussian NBO Version 3.1******************************
       /RESON  / : Allow strongly delocalized NBO set
       /NLMO   / : Form Natural Localized Molecular Orbitals
       /NMR /    : Analyze NMR Sheilding Tensor 

 Analyzing the SCF density

 Job title: Title Card Required                                             

 Storage needed:     43472 in NPA,     53775 in NBO,    102144 in NLMO ( 104850000 available)
 GSVD:  LWork=      -13908 too small for GESVD, short by       66690 words or       66690 for optimal perf.


 NATURAL POPULATIONS:  Natural atomic orbital occupancies 
                                                          
   NAO  Atom  No  lang   Type(AO)    Occupancy      Energy
 ----------------------------------------------------------
     1    C    1  S      Cor( 1S)     1.99991     -10.98529
     2    C    1  S      Val( 2S)     1.08166      -0.20191
     3    C    1  px     Val( 2p)     0.95435       0.14925
     4    C    1  py     Val( 2p)     0.95006       0.13341
     5    C    1  pz     Val( 2p)     0.93774       0.04651

     6    C    2  S      Cor( 1S)     1.99995     -10.94875
     7    C    2  S      Val( 2S)     1.08044      -0.18738
     8    C    2  px     Val( 2p)     0.98414       0.13529
     9    C    2  py     Val( 2p)     0.97917       0.13548
    10    C    2  pz     Val( 2p)     1.02915       0.02807

    11    C    3  S      Cor( 1S)     1.99994     -10.96556
    12    C    3  S      Val( 2S)     1.08010      -0.19067
    13    C    3  px     Val( 2p)     0.97969       0.13271
    14    C    3  py     Val( 2p)     0.98223       0.12593
    15    C    3  pz     Val( 2p)     0.96549       0.03579

    16    C    4  S      Cor( 1S)     1.99994     -10.95039
    17    C    4  S      Val( 2S)     1.07707      -0.18733
    18    C    4  px     Val( 2p)     0.98048       0.13572
    19    C    4  py     Val( 2p)     0.99365       0.12332
    20    C    4  pz     Val( 2p)     1.04425       0.02077

    21    C    5  S      Cor( 1S)     1.99978     -11.03377
    22    C    5  S      Val( 2S)     1.06034      -0.21637
    23    C    5  px     Val( 2p)     0.82901       0.14884
    24    C    5  py     Val( 2p)     0.95351       0.12691
    25    C    5  pz     Val( 2p)     0.97043       0.01068

    26    C    6  S      Cor( 1S)     1.99991     -10.96309
    27    C    6  S      Val( 2S)     1.08751      -0.20965
    28    C    6  px     Val( 2p)     0.98430       0.13055
    29    C    6  py     Val( 2p)     0.97520       0.12450
    30    C    6  pz     Val( 2p)     1.07973       0.00202

    31    C    7  S      Cor( 1S)     1.99996     -11.05628
    32    C    7  S      Val( 2S)     1.07722      -0.24481
    33    C    7  px     Val( 2p)     0.93297       0.09971
    34    C    7  py     Val( 2p)     0.85228       0.16929
    35    C    7  pz     Val( 2p)     0.89765       0.00920

    36    O    8  S      Cor( 1S)     1.99999     -20.20805
    37    O    8  S      Val( 2S)     1.73279      -1.02254
    38    O    8  px     Val( 2p)     1.31025      -0.13070
    39    O    8  py     Val( 2p)     1.72716      -0.31635
    40    O    8  pz     Val( 2p)     1.48936      -0.21341

    41    C    9  S      Cor( 1S)     1.99988     -11.06070
    42    C    9  S      Val( 2S)     1.08311      -0.23946
    43    C    9  px     Val( 2p)     0.96218       0.05705
    44    C    9  py     Val( 2p)     0.94468       0.07439
    45    C    9  pz     Val( 2p)     0.85794       0.09314

    46    C   10  S      Cor( 1S)     1.99996     -11.00636
    47    C   10  S      Val( 2S)     1.10007      -0.23134
    48    C   10  px     Val( 2p)     0.99368       0.06689
    49    C   10  py     Val( 2p)     0.98043       0.07393
    50    C   10  pz     Val( 2p)     1.01852       0.05982

    51    C   11  S      Cor( 1S)     1.99996     -10.99235
    52    C   11  S      Val( 2S)     1.08680      -0.20798
    53    C   11  px     Val( 2p)     0.97198       0.08050
    54    C   11  py     Val( 2p)     1.01542       0.07292
    55    C   11  pz     Val( 2p)     1.00849       0.07469

    56    C   12  S      Cor( 1S)     1.99993     -11.01183
    57    C   12  S      Val( 2S)     1.07501      -0.20035
    58    C   12  px     Val( 2p)     1.01065       0.07112
    59    C   12  py     Val( 2p)     0.88080       0.11060
    60    C   12  pz     Val( 2p)     0.99830       0.08040

    61    N   13  S      Cor( 1S)     1.99999     -15.24822
    62    N   13  S      Val( 2S)     1.46808      -0.60628
    63    N   13  px     Val( 2p)     1.17035      -0.01209
    64    N   13  py     Val( 2p)     1.07976       0.03224
    65    N   13  pz     Val( 2p)     1.54757      -0.15571

    66    C   14  S      Cor( 1S)     1.99994     -11.02469
    67    C   14  S      Val( 2S)     1.08547      -0.21688
    68    C   14  px     Val( 2p)     0.88414       0.10805
    69    C   14  py     Val( 2p)     0.98426       0.07544
    70    C   14  pz     Val( 2p)     0.95168       0.09751

    71    C   15  S      Cor( 1S)     1.99997     -10.97504
    72    C   15  S      Val( 2S)     1.08724      -0.19566
    73    C   15  px     Val( 2p)     0.99168       0.08985
    74    C   15  py     Val( 2p)     1.02912       0.08384
    75    C   15  pz     Val( 2p)     0.98214       0.08380

    76    C   16  S      Cor( 1S)     1.99998     -10.97559
    77    C   16  S      Val( 2S)     1.08380      -0.19179
    78    C   16  px     Val( 2p)     0.97182       0.08833
    79    C   16  py     Val( 2p)     1.02418       0.08705
    80    C   16  pz     Val( 2p)     0.99853       0.09209

    81    C   17  S      Cor( 1S)     1.99994     -11.00507
    82    C   17  S      Val( 2S)     1.07923      -0.19832
    83    C   17  px     Val( 2p)     0.96727       0.09399
    84    C   17  py     Val( 2p)     1.01673       0.07333
    85    C   17  pz     Val( 2p)     0.90730       0.10544

    86    O   18  S      Cor( 1S)     1.99999     -20.11340
    87    O   18  S      Val( 2S)     1.80612      -1.06140
    88    O   18  px     Val( 2p)     1.82141      -0.31971
    89    O   18  py     Val( 2p)     1.35215      -0.11612
    90    O   18  pz     Val( 2p)     1.26116      -0.13837

    91    C   19  S      Cor( 1S)     1.99997     -10.97688
    92    C   19  S      Val( 2S)     1.07801      -0.18726
    93    C   19  px     Val( 2p)     1.03039       0.07563
    94    C   19  py     Val( 2p)     0.99753       0.07952
    95    C   19  pz     Val( 2p)     1.04064       0.07171

    96    H   20  S      Val( 1S)     0.94462       0.05889

    97    H   21  S      Val( 1S)     0.98002       0.03361

    98    H   22  S      Val( 1S)     0.96701       0.06159

    99    H   23  S      Val( 1S)     0.96735       0.06593

   100    H   24  S      Val( 1S)     0.96082       0.06012

   101    H   25  S      Val( 1S)     0.95558       0.07135

   102    H   26  S      Val( 1S)     0.95487       0.06475

   103    H   27  S      Val( 1S)     0.95556       0.06544

   104    H   28  S      Val( 1S)     0.97973       0.05944

   105    H   29  S      Val( 1S)     0.96604       0.06342

   106    H   30  S      Val( 1S)     0.96109       0.07281

   107    H   31  S      Val( 1S)     0.96279       0.06895

   108    H   32  S      Val( 1S)     0.96584       0.06869

   109    H   33  S      Val( 1S)     0.96407       0.06996

   110    H   34  S      Val( 1S)     0.96454       0.06110

   111    H   35  S      Val( 1S)     0.96934       0.06896

   112    H   36  S      Val( 1S)     0.94251       0.08014

   113    H   37  S      Val( 1S)     0.95538       0.07303

   114    H   38  S      Val( 1S)     0.93873       0.08268


 Summary of Natural Population Analysis:                  
                                                          
                                       Natural Population 
                Natural  -----------------------------------------------
    Atom  No    Charge         Core      Valence    Rydberg      Total
 -----------------------------------------------------------------------
      C    1    0.07628      1.99991     3.92381    0.00000     5.92372
      C    2   -0.07283      1.99995     4.07289    0.00000     6.07283
      C    3   -0.00745      1.99994     4.00751    0.00000     6.00745
      C    4   -0.09540      1.99994     4.09546    0.00000     6.09540
      C    5    0.18694      1.99978     3.81328    0.00000     5.81306
      C    6   -0.12665      1.99991     4.12674    0.00000     6.12665
      C    7    0.23993      1.99996     3.76011    0.00000     5.76007
      O    8   -0.25955      1.99999     6.25956    0.00000     8.25955
      C    9    0.15221      1.99988     3.84791    0.00000     5.84779
      C   10   -0.09266      1.99996     4.09270    0.00000     6.09266
      C   11   -0.08266      1.99996     4.08270    0.00000     6.08266
      C   12    0.03531      1.99993     3.96476    0.00000     5.96469
      N   13   -0.26576      1.99999     5.26577    0.00000     7.26576
      C   14    0.09451      1.99994     3.90555    0.00000     5.90549
      C   15   -0.09015      1.99997     4.09018    0.00000     6.09015
      C   16   -0.07832      1.99998     4.07834    0.00000     6.07832
      C   17    0.02953      1.99994     3.97053    0.00000     5.97047
      O   18   -0.24084      1.99999     6.24085    0.00000     8.24084
      C   19   -0.14654      1.99997     4.14657    0.00000     6.14654
      H   20    0.05538      0.00000     0.94462    0.00000     0.94462
      H   21    0.01998      0.00000     0.98002    0.00000     0.98002
      H   22    0.03299      0.00000     0.96701    0.00000     0.96701
      H   23    0.03265      0.00000     0.96735    0.00000     0.96735
      H   24    0.03918      0.00000     0.96082    0.00000     0.96082
      H   25    0.04442      0.00000     0.95558    0.00000     0.95558
      H   26    0.04513      0.00000     0.95487    0.00000     0.95487
      H   27    0.04444      0.00000     0.95556    0.00000     0.95556
      H   28    0.02027      0.00000     0.97973    0.00000     0.97973
      H   29    0.03396      0.00000     0.96604    0.00000     0.96604
      H   30    0.03891      0.00000     0.96109    0.00000     0.96109
      H   31    0.03721      0.00000     0.96279    0.00000     0.96279
      H   32    0.03416      0.00000     0.96584    0.00000     0.96584
      H   33    0.03593      0.00000     0.96407    0.00000     0.96407
      H   34    0.03546      0.00000     0.96454    0.00000     0.96454
      H   35    0.03066      0.00000     0.96934    0.00000     0.96934
      H   36    0.05749      0.00000     0.94251    0.00000     0.94251
      H   37    0.04462      0.00000     0.95538    0.00000     0.95538
      H   38    0.06127      0.00000     0.93873    0.00000     0.93873
 =======================================================================
   * Total *    0.00000     37.99888   100.00112    0.00000   138.00000

                                 Natural Population      
 --------------------------------------------------------
   Core                      37.99888 ( 99.9971% of  38)
   Valence                  100.00112 (100.0011% of 100)
   Natural Minimal Basis    138.00000 (100.0000% of 138)
   Natural Rydberg Basis      0.00000 (  0.0000% of 138)
 --------------------------------------------------------

    Atom  No          Natural Electron Configuration
 ----------------------------------------------------------------------------
      C    1      [core]2S( 1.08)2p( 2.84)
      C    2      [core]2S( 1.08)2p( 2.99)
      C    3      [core]2S( 1.08)2p( 2.93)
      C    4      [core]2S( 1.08)2p( 3.02)
      C    5      [core]2S( 1.06)2p( 2.75)
      C    6      [core]2S( 1.09)2p( 3.04)
      C    7      [core]2S( 1.08)2p( 2.68)
      O    8      [core]2S( 1.73)2p( 4.53)
      C    9      [core]2S( 1.08)2p( 2.76)
      C   10      [core]2S( 1.10)2p( 2.99)
      C   11      [core]2S( 1.09)2p( 3.00)
      C   12      [core]2S( 1.08)2p( 2.89)
      N   13      [core]2S( 1.47)2p( 3.80)
      C   14      [core]2S( 1.09)2p( 2.82)
      C   15      [core]2S( 1.09)2p( 3.00)
      C   16      [core]2S( 1.08)2p( 2.99)
      C   17      [core]2S( 1.08)2p( 2.89)
      O   18      [core]2S( 1.81)2p( 4.43)
      C   19      [core]2S( 1.08)2p( 3.07)
      H   20            1S( 0.94)
      H   21            1S( 0.98)
      H   22            1S( 0.97)
      H   23            1S( 0.97)
      H   24            1S( 0.96)
      H   25            1S( 0.96)
      H   26            1S( 0.95)
      H   27            1S( 0.96)
      H   28            1S( 0.98)
      H   29            1S( 0.97)
      H   30            1S( 0.96)
      H   31            1S( 0.96)
      H   32            1S( 0.97)
      H   33            1S( 0.96)
      H   34            1S( 0.96)
      H   35            1S( 0.97)
      H   36            1S( 0.94)
      H   37            1S( 0.96)
      H   38            1S( 0.94)


 NATURAL BOND ORBITAL ANALYSIS:

                       Occupancies       Lewis Structure    Low   High
           Occ.    -------------------  -----------------   occ   occ
  Cycle   Thresh.   Lewis   Non-Lewis     CR  BD  3C  LP    (L)   (NL)   Dev
 =============================================================================
   1(1)    1.90   134.42029   3.57971     19  43   0   7     3      3    0.45
   2(2)    1.90   134.42029   3.57971     19  43   0   7     3      3    0.45
   3(1)    1.80   134.35272   3.64728     19  42   0   8     3      3    0.45
   4(2)    1.80   134.35272   3.64728     19  42   0   8     3      3    0.45
   5(1)    1.70   134.35272   3.64728     19  42   0   8     3      3    0.45
   6(2)    1.70   134.35272   3.64728     19  42   0   8     3      3    0.45
   7(1)    1.60   135.52626   2.47374     19  44   0   6     1      3    0.43
   8(2)    1.60   136.10758   1.89242     19  45   0   5     0      3    0.45
   9(3)    1.60   136.13517   1.86483     19  45   0   5     0      3    0.43
  10(4)    1.60   136.10758   1.89242     19  45   0   5     0      3    0.45
  11(5)    1.60   136.13517   1.86483     19  45   0   5     0      3    0.43
  12(1)    1.50   136.13517   1.86483     19  45   0   5     0      3    0.43
  13(2)    1.50   136.10758   1.89242     19  45   0   5     0      3    0.45
  14(3)    1.50   136.13517   1.86483     19  45   0   5     0      3    0.43
  15(1)    1.60   136.13517   1.86483     19  45   0   5     0      3    0.43
 -----------------------------------------------------------------------------

 Structure accepted: RESONANCE keyword permits strongly delocalized structure

 --------------------------------------------------------
   Core                     37.99888 ( 99.997% of  38)
   Valence Lewis            98.13629 ( 98.136% of 100)
  ==================       ============================
   Total Lewis             136.13517 ( 98.649% of 138)
  -----------------------------------------------------
   Valence non-Lewis         1.86483 (  1.351% of 138)
   Rydberg non-Lewis         0.00000 (  0.000% of 138)
  ==================       ============================
   Total non-Lewis           1.86483 (  1.351% of 138)
 --------------------------------------------------------


       (Occupancy)   Bond orbital/ Coefficients/ Hybrids
 ---------------------------------------------------------------------------------
     1. (1.98534) BD ( 1) C   1 - C   2  
                ( 50.00%)   0.7071* C   1 s( 33.72%)p 1.97( 66.28%)
                                            0.0000  0.5807  0.5232  0.5056  0.3654
                ( 50.00%)   0.7071* C   2 s( 34.47%)p 1.90( 65.53%)
                                            0.0001  0.5871 -0.5085 -0.5038 -0.3781
     2. (1.65605) BD ( 2) C   1 - C   2  
                ( 45.63%)   0.6755* C   1 s(  0.00%)p 1.00(100.00%)
                                           -0.0000  0.0012 -0.2897 -0.3464  0.8922
                ( 54.37%)   0.7374* C   2 s(  0.00%)p 1.00(100.00%)
                                            0.0000  0.0024 -0.2995 -0.3585  0.8842
     3. (1.98123) BD ( 1) C   1 - C   6  
                ( 49.47%)   0.7033* C   1 s( 34.62%)p 1.89( 65.38%)
                                            0.0001  0.5884 -0.7598  0.2259 -0.1597
                ( 50.53%)   0.7109* C   6 s( 35.57%)p 1.81( 64.43%)
                                            0.0000  0.5964  0.7433 -0.2700  0.1374
     4. (1.98738) BD ( 1) C   1 - C  19  
                ( 50.17%)   0.7083* C   1 s( 31.67%)p 2.16( 68.33%)
                                           -0.0000  0.5627  0.2552 -0.7572 -0.2119
                ( 49.83%)   0.7059* C  19 s( 25.57%)p 2.91( 74.43%)
                                            0.0001  0.5057 -0.2856  0.7866  0.2097
     5. (1.98976) BD ( 1) C   2 - C   3  
                ( 49.56%)   0.7040* C   2 s( 34.20%)p 1.92( 65.80%)
                                            0.0001  0.5848 -0.2293  0.7455  0.2231
                ( 50.44%)   0.7102* C   3 s( 34.33%)p 1.91( 65.67%)
                                            0.0000  0.5859  0.2423 -0.7414 -0.2200
     6. (1.98878) BD ( 1) C   2 - H  23  
                ( 51.66%)   0.7187* C   2 s( 31.33%)p 2.19( 68.67%)
                                           -0.0001  0.5598  0.7741 -0.2488  0.1598
[...]
                         Standard Origin              Atomic Origin
 NLMO      Total    Paramagnetic  Diamagnetic   Paramagnetic  Diamagnetic
    3      -0.4957       -0.4253      -0.0704        -1.1496       0.6539
    4       0.1315       -0.9907       1.1222        -0.8473       0.9789
    8       0.2430       -0.2664       0.5094        -0.7957       1.0387
   13       0.7781       -0.2221       1.0003        -0.6885       1.4667
   15     -10.7535      -10.8805       0.1269       -11.4884       0.7348
   16     -10.9379      -11.2965       0.3586       -11.6972       0.7593
   17    -117.8272     -128.7363      10.9091      -127.2819       9.4547
   18     -27.4962      -51.6172      24.1210       -52.4416      24.9455
   20      -1.2412       -1.4130       0.1717        -1.3020       0.0608
   23      -0.1937       -0.3490       0.1553        -1.0907       0.8970
   24      -0.1458       -0.3742       0.2284        -1.1744       1.0286
   43      -0.4288       -1.8552       1.4263        -1.3797       0.9508
   45      -0.3109       -1.5735       1.2627        -1.2833       0.9724
   63     271.9243       -0.0058     271.9301        -0.0058     271.9301
   68     -35.4959      -70.6442      35.1483       -70.5568      35.0609
   69    -424.3042     -460.9934      36.6892      -463.9736      39.6694
 Sum     -356.5541     -741.6431     385.0891      -747.1564     390.6024

 Contributions to Isotropic shielding for atom   19 (   218.1588 ppm):
                         Standard Origin              Atomic Origin
 NLMO      Total    Paramagnetic  Diamagnetic   Paramagnetic  Diamagnetic
    1      -1.9542       -1.3490      -0.6051        -2.4391       0.4849
    2      -0.8924       -0.5878      -0.3046        -2.5445       1.6521
    3      -1.1337       -1.5242       0.3905        -1.4326       0.2990
    4       3.9709      -11.7140      15.6849        -2.9771       6.9479
    6      -0.6147       -1.3537       0.7390        -1.6515       1.0369
    8       0.7936       -0.2168       1.0103        -0.3896       1.1832
   15      -0.4197        0.1079      -0.5277        -1.2812       0.8615
   17      -0.4165       -0.3141      -0.1024        -1.1565       0.7401
   18       0.2962        0.2194       0.0767        -1.1937       1.4899
   43       7.1734       -3.2130      10.3864        -4.2565      11.4299
   44       4.0384        5.0768      -1.0384        -7.1466      11.1850
   45       6.8035       -5.5516      12.3551        -4.6460      11.4495
   64     200.0791       -0.0039     200.0831         0.0036     200.0755
 Sum      217.7241      -20.4238     238.1479       -31.1114     248.8354

 Contributions to Isotropic shielding for atom   20 (    30.5614 ppm):
                         Standard Origin              Atomic Origin
 NLMO      Total    Paramagnetic  Diamagnetic   Paramagnetic  Diamagnetic
   13       0.1167       -0.3368       0.4535        -0.8935       1.0103
   16       1.6791        1.8047      -0.1256         0.8042       0.8749
   17      -0.6856       -0.7055       0.0199        -1.5566       0.8711
   18       0.2655       -0.1152       0.3807        -1.3243       1.5898
   20       1.2263        1.3388      -0.1125         0.3527       0.8736
   23       1.2523        1.4928      -0.2405         0.1526       1.0997
   24      25.7109       -0.1365      25.8475         0.3802      25.3308
   34       0.0246       -0.5033       0.5279        -1.0340       1.0585
 Sum       29.5899        2.8390      26.7509        -3.1187      32.7086

 Contributions to Isotropic shielding for atom   21 (    31.3119 ppm):
                         Standard Origin              Atomic Origin
 NLMO      Total    Paramagnetic  Diamagnetic   Paramagnetic  Diamagnetic
   13      -0.1203       -0.4539       0.3337        -1.4137       1.2934
   19       0.8806        0.5041       0.3765        -0.4857       1.3663
   21       0.4418        1.3485      -0.9067        -0.7419       1.1836
   22      26.4538        0.3495      26.1044         0.8795      25.5744
   24       0.1772       -0.0922       0.2694        -0.9000       1.0772
   26       0.2272       -0.6668       0.8940        -0.8071       1.0343
   65       0.7724        0.0607       0.7117         1.0453      -0.2729
 Sum       28.8328        1.0498      27.7830        -2.4236      31.2564

 Contributions to Isotropic shielding for atom   22 (    30.9812 ppm):
                         Standard Origin              Atomic Origin
 NLMO      Total    Paramagnetic  Diamagnetic   Paramagnetic  Diamagnetic
   18       0.0088       -0.3379       0.3467        -1.3266       1.3354
   23       1.0161        0.2576       0.7585        -0.1256       1.1418
   24       0.0742        0.0725       0.0017        -0.9962       1.0704
   31       0.4157        1.6072      -1.1915        -0.8173       1.2331
   34      26.2136        0.0588      26.1548         0.6999      25.5137
   37       0.0593       -0.3136       0.3729        -0.9514       1.0107
   38       0.3124       -1.0049       1.3173        -0.5738       0.8862
   42      -0.0060       -1.1879       1.1819        -0.8231       0.8171
 Sum       28.0942       -0.8482      28.9424        -4.9141      33.0083

 Contributions to Isotropic shielding for atom   23 (    25.8766 ppm):
                         Standard Origin              Atomic Origin
 NLMO      Total    Paramagnetic  Diamagnetic   Paramagnetic  Diamagnetic
    1      -1.5108       -2.5808       1.0700        -2.0925       0.5818
    2       0.6843        1.4843      -0.8000        -2.6697       3.3540
    4      -0.6724        0.6134      -1.2859        -1.7487       1.0762
    5      -1.9598       -1.4139      -0.5459        -2.6668       0.7070
    6      27.0114        0.9639      26.0476         1.5484      25.4630
    8       1.0270        0.2485       0.7786         0.1538       0.8732
    9      -0.0908       -0.0597      -0.0311        -1.1957       1.1049
   13       0.6251        0.7839      -0.1588        -0.6301       1.2552
   44      -0.1150       -1.5305       1.4154        -0.9003       0.7853
 Sum       24.9990       -1.4908      26.4898       -10.2016      35.2006

 Contributions to Isotropic shielding for atom   24 (    25.3110 ppm):
                         Standard Origin              Atomic Origin
 NLMO      Total    Paramagnetic  Diamagnetic   Paramagnetic  Diamagnetic
    2       1.0807        0.5998       0.4809         0.0159       1.0648
    5      -2.0624       -1.8653      -0.1970        -2.8033       0.7410
    6      -0.0969       -0.1162       0.0193        -1.2267       1.1297
    7      -1.8103       -2.7027       0.8924        -2.5308       0.7205
    8       0.6793        1.1132      -0.4338        -2.1434       2.8227
    9      26.8619        1.1228      25.7391         1.5770      25.2849
   11      -0.1092        0.5464      -0.6556        -1.2165       1.1074
   13       0.4708        0.6959      -0.2251        -0.9049       1.3757
 Sum       25.0139       -0.6061      25.6201        -9.2327      34.2466

 Contributions to Isotropic shielding for atom   25 (    25.7328 ppm):
                         Standard Origin              Atomic Origin
 NLMO      Total    Paramagnetic  Diamagnetic   Paramagnetic  Diamagnetic
    2       1.1856       -0.4619       1.6475        -0.0452       1.2309
    7      -1.7440       -1.0480      -0.6960        -2.4199       0.6759
    8       0.4020       -0.1983       0.6003        -2.9967       3.3987
    9      -0.0549       -1.0456       0.9907        -1.1514       1.0965
   10      -0.8913       -2.4426       1.5514        -1.4459       0.5546
   11      26.5095        1.0946      25.4149         1.2968      25.2126
   14      -0.4264        0.1841      -0.6106        -2.0149       1.5885
   65      -0.2507       -0.3811       0.1304         0.7543      -1.0050
 Sum       24.7298       -4.2988      29.0286        -8.0228      32.7527

 Contributions to Isotropic shielding for atom   26 (    31.7202 ppm):
                         Standard Origin              Atomic Origin
 NLMO      Total    Paramagnetic  Diamagnetic   Paramagnetic  Diamagnetic
   21       1.5212        0.0709       1.4502         0.7640       0.7571
   25       1.0399        1.4156      -0.3757         0.1200       0.9199
   26      26.0459        0.0496      25.9963         0.4658      25.5801
   27       1.9902        2.2411      -0.2509         0.2147       1.7754
   28       0.0802       -0.4042       0.4843        -1.0552       1.1353
 Sum       30.6773        3.3730      27.3043         0.5094      30.1679

 Contributions to Isotropic shielding for atom   27 (    31.5034 ppm):
                         Standard Origin              Atomic Origin
 NLMO      Total    Paramagnetic  Diamagnetic   Paramagnetic  Diamagnetic
   19      -0.0991        0.4733      -0.5724        -1.7344       1.6353
   21       1.4362        0.0295       1.4067         0.6023       0.8338
   25       1.0773        1.4086      -0.3312         0.0694       1.0079
   26       1.9589        2.2331      -0.2741         0.1838       1.7751
   27      26.0563        0.0910      25.9654         0.4537      25.6026
   30       0.2338       -0.0492       0.2830        -0.7704       1.0042
 Sum       30.6635        4.1861      26.4773        -1.1955      31.8589

 Contributions to Isotropic shielding for atom   28 (    31.9846 ppm):
                         Standard Origin              Atomic Origin
 NLMO      Total    Paramagnetic  Diamagnetic   Paramagnetic  Diamagnetic
   19       0.0362        0.0199       0.0163        -1.2916       1.3278
   25       1.2274       -0.4995       1.7269         0.2714       0.9559
   28       1.2296       -0.3841       1.6137         0.5195       0.7101
   29      26.4459        0.5164      25.9295         0.6116      25.8343
   30       1.6032        1.8707      -0.2676        -0.2087       1.8119
 Sum       30.5423        1.5235      29.0189        -0.0978      30.6401

 Contributions to Isotropic shielding for atom   29 (    31.5777 ppm):
                         Standard Origin              Atomic Origin
 NLMO      Total    Paramagnetic  Diamagnetic   Paramagnetic  Diamagnetic
   25       0.6952        1.5084      -0.8132        -0.4023       1.0975
   26       0.1918        0.3515      -0.1597        -0.8359       1.0277
   28       0.6301        1.6208      -0.9907        -0.7046       1.3348
   29       1.7972        1.1655       0.6318         0.0588       1.7384
   30      26.3904        0.0200      26.3704         0.7412      25.6493
   32      -0.2593        0.4311      -0.6905        -1.1097       0.8504
   41      -0.0660       -1.3062       1.2402        -0.9107       0.8447
 Sum       29.3795        3.7911      25.5884        -3.1632      32.5427

 Contributions to Isotropic shielding for atom   30 (    32.5545 ppm):
                         Standard Origin              Atomic Origin
 NLMO      Total    Paramagnetic  Diamagnetic   Paramagnetic  Diamagnetic
   13      -0.1701       -0.5707       0.4006        -1.3189       1.1488
   33       1.5472       -0.3412       1.8884         0.9015       0.6456
   35       0.7515        1.1569      -0.4054        -0.1399       0.8914
   36      26.0595        0.3021      25.7574         0.3175      25.7420
   37       2.1342        0.2770       1.8572         0.3120       1.8222
   39       0.0030       -1.8735       1.8764        -1.1686       1.1716
 Sum       30.3252       -1.0494      31.3746        -1.0964      31.4216

 Contributions to Isotropic shielding for atom   31 (    33.1153 ppm):
                         Standard Origin              Atomic Origin
 NLMO      Total    Paramagnetic  Diamagnetic   Paramagnetic  Diamagnetic
   13      -0.1431       -0.3809       0.2378        -1.1384       0.9953
   18      -0.3412       -0.3268      -0.0144        -1.1906       0.8494
   33       1.4611        0.2555       1.2056         0.7147       0.7465
   34       0.0620       -0.3067       0.3687        -0.9726       1.0346
   35       0.6216        1.9214      -1.2997        -0.2170       0.8387
   36       2.2759        0.1450       2.1310         0.4823       1.7936
   37      26.1536        0.1331      26.0205         0.3742      25.7794
   40       0.0445       -1.4924       1.5369        -1.0938       1.1383
 Sum       30.1345       -0.0520      30.1865        -3.0412      33.1757

 Contributions to Isotropic shielding for atom   32 (    32.1966 ppm):
                         Standard Origin              Atomic Origin
 NLMO      Total    Paramagnetic  Diamagnetic   Paramagnetic  Diamagnetic
   32       0.3371       -0.8664       1.2035         0.1616       0.1755
   35       1.5527       -1.0749       2.6276         0.6597       0.8930
   36      -0.1889        0.6525      -0.8414        -1.3755       1.1865
   38       0.7782        1.1945      -0.4163        -0.0408       0.8190
   39      26.2983        0.0505      26.2478         0.4471      25.8512
   40       1.9672        2.3112      -0.3439         0.1756       1.7916
   41      -0.0059       -0.7203       0.7145        -1.0967       1.0908
 Sum       30.7388        1.5471      29.1918        -1.0689      31.8078

 Contributions to Isotropic shielding for atom   33 (    32.2770 ppm):
                         Standard Origin              Atomic Origin
 NLMO      Total    Paramagnetic  Diamagnetic   Paramagnetic  Diamagnetic
   31      -0.1930        0.1842      -0.3773        -1.0633       0.8703
   32       0.3080       -0.8314       1.1394         0.1816       0.1264
   35       1.4572       -0.4104       1.8676         0.6020       0.8552
   37      -0.0906        0.7591      -0.8497        -1.2030       1.1124
   38       0.5691        1.6982      -1.1291        -0.2324       0.8015
   39       2.0398        2.1073      -0.0675         0.2534       1.7863
   40      26.3033       -0.1203      26.4235         0.4998      25.8034
   42      -0.0158       -0.6563       0.6405        -1.1803       1.1645
 Sum       30.3778        2.7304      27.6474        -2.1423      32.5201

 Contributions to Isotropic shielding for atom   34 (    31.7178 ppm):
                         Standard Origin              Atomic Origin
 NLMO      Total    Paramagnetic  Diamagnetic   Paramagnetic  Diamagnetic
   28      -0.3983        0.9257      -1.3239        -1.5960       1.1978
   32       1.0350       -0.2645       1.2995         0.1175       0.9175
   33      -0.1359        0.2465      -0.3823        -1.0301       0.8943
   39      -0.0278        0.2842      -0.3120        -1.1378       1.1101
   41      26.4037        0.1665      26.2372         0.8445      25.5592
   42       1.5428        2.6329      -1.0901        -0.2979       1.8407
   67       1.0421       -0.0775       1.1196         1.1448      -0.1027
 Sum       29.4617        3.9138      25.5479        -1.9551      31.4168

 Contributions to Isotropic shielding for atom   35 (    31.4241 ppm):
                         Standard Origin              Atomic Origin
 NLMO      Total    Paramagnetic  Diamagnetic   Paramagnetic  Diamagnetic
   32       1.2787       -0.1369       1.4155        -0.0610       1.3397
   33      -0.1963        0.3466      -0.5429        -1.0427       0.8464
   40      -0.0734        0.1292      -0.2026        -1.2206       1.1472
   41       1.3569        2.6027      -1.2458        -0.5881       1.9450
   42      26.4239        0.1426      26.2813         0.7507      25.6732
 Sum       28.7898        3.0843      25.7055        -2.1616      30.9514

 Contributions to Isotropic shielding for atom   36 (    31.1287 ppm):
                         Standard Origin              Atomic Origin
 NLMO      Total    Paramagnetic  Diamagnetic   Paramagnetic  Diamagnetic
    2      -0.7763       -0.3361      -0.4402        -1.6449       0.8686
    4       1.8071       -0.6189       2.4260         0.9446       0.8625
    8       0.5333       -0.0970       0.6303        -0.5639       1.0972
   15      -0.3505        0.2696      -0.6201        -1.2654       0.9149
   18       0.1385        0.2820      -0.1435        -1.2224       1.3610
   43      25.7574        0.2095      25.5480         0.3589      25.3985
   44       1.7986        2.6706      -0.8720        -0.0986       1.8972
   45       2.2098        0.4778       1.7319         0.3767       1.8331
 Sum       31.1181        2.8576      28.2605        -3.1149      34.2330

 Contributions to Isotropic shielding for atom   37 (    30.9938 ppm):
                         Standard Origin              Atomic Origin
 NLMO      Total    Paramagnetic  Diamagnetic   Paramagnetic  Diamagnetic
    1      -1.0118        0.2958      -1.3076        -1.9184       0.9066
    2      -0.7574        0.1700      -0.9274        -2.3616       1.6042
    4       1.0835        0.6236       0.4599         0.3214       0.7621
    6      -0.0271       -1.1488       1.1217        -0.9648       0.9377
   18       0.0879        0.0863       0.0016        -0.9303       1.0182
   43       2.0342        2.4511      -0.4170         0.0510       1.9832
   44      26.2592       -0.1387      26.3980         0.5228      25.7364
   45       2.1081        2.1179      -0.0098         0.1423       1.9658
 Sum       29.7766        4.4573      25.3193        -5.1376      34.9142

 Contributions to Isotropic shielding for atom   38 (    30.8190 ppm):
                         Standard Origin              Atomic Origin
 NLMO      Total    Paramagnetic  Diamagnetic   Paramagnetic  Diamagnetic
    2      -0.8130       -0.4956      -0.3174        -1.7638       0.9508
    4       1.9092       -0.8722       2.7815         1.0347       0.8746
    8       0.4954       -0.1933       0.6886        -0.5774       1.0728
   15      -0.3066        0.1670      -0.4736        -1.2102       0.9036
   18       0.1545        0.0379       0.1166        -1.1350       1.2895
   43       2.1885        0.6210       1.5675         0.3915       1.7970
   44       1.7778        2.4242      -0.6465        -0.0839       1.8617
   45      25.6722        0.2757      25.3966         0.3614      25.3108
 Sum       31.0780        1.9646      29.1134        -2.9828      34.0608
 
 1\1\GINC-GNOSIE-MM\SP\RHF\STO-3G\C16H19N1O2\MBENIDD\18-May-2026\0\\# n
 mr=giao hf/sto-3g pop=nbo\\Title Card Required\\0,1\C,0,0.,0.,0.\C,0,1
 .4074,0.,0.\C,0,2.1278,1.194,0.\C,0,1.4527,2.4091,-0.0105\C,0,0.0587,2
 .4294,-0.0296\C,0,-0.6768,1.2363,-0.0001\C,0,-2.1526,1.3479,0.083\O,0,
 -0.5103,3.6763,-0.033\C,0,-1.7828,3.6854,-0.6858\C,0,-2.7629,2.7233,-0
 .0362\C,0,-2.3295,5.1118,-0.6511\C,0,-2.7401,5.5181,0.7623\N,0,-3.7644
 ,4.6095,1.3006\C,0,-3.3263,3.1949,1.3086\C,0,-2.4329,3.0863,2.544\C,0,
 -3.0361,4.0825,3.5287\C,0,-4.0315,4.907,2.7182\O,0,-2.864,0.3652,0.281
 3\C,0,-0.7086,-1.3272,0.018\H,0,-3.6078,2.6277,-0.7345\H,0,-1.6203,3.4
 124,-1.7387\H,0,-4.2198,2.5833,1.5071\H,0,1.9559,-0.9409,0.0081\H,0,3.
 2149,1.1744,0.0083\H,0,2.011,3.3418,-0.0111\H,0,-3.1941,5.1925,-1.3219
 \H,0,-1.5673,5.813,-1.0114\H,0,-1.8511,5.5661,1.4039\H,0,-3.1534,6.533
 3,0.7208\H,0,-1.3955,3.3676,2.342\H,0,-2.4274,2.0725,2.9579\H,0,-2.249
 8,4.7147,3.9554\H,0,-3.5398,3.5669,4.3534\H,0,-3.9815,5.9754,2.9565\H,
 0,-5.0517,4.5807,2.9554\H,0,-1.4124,-1.4001,-0.8171\H,0,-0.0034,-2.158
 6,-0.0922\H,0,-1.2313,-1.4694,0.9688\\Version=EM64L-G16RevB.01\State=1
 -A\HF=-811.0581113\RMSD=9.789e-09\Dipole=0.4863169,0.2327001,-0.060038
 3\Quadrupole=-2.1689156,-0.2973416,2.4662572,-2.2900817,-0.7315937,0.5
 770561\PG=C01 [X(C16H19N1O2)]\\@



 IN THIS SHORT LIFE

 THAT ONLY LASTS AN HOUR

 HOW MUCH, HOW LITTLE, IS WITHIN OUR POWER....


 EMILY DICKINSON BOLTS OF MELODY NO. 521
 Job cpu time:       0 days  0 hours  3 minutes 52.5 seconds.
 Elapsed time:       0 days  0 hours  2 minutes  7.8 seconds.
 File lengths (MBytes):  RWF=     14 Int=      0 D2E=      0 Chk=      2 Scr=      1
 Normal termination of Gaussian 16 at Mon May 18 11:33:19 2026.
