 Entering Gaussian System, Link 0=g16
 Input=3_elaeocarpine_c_5.gjf
 Output=3_elaeocarpine_c_5.log
 Initial command:
 /opt/gaussian/g16/l1.exe "/home/mbenidd/Bureau/Elaeocarpines/HF_NMR/3/3_elaeocarpine_c5/Gau-10142.inp" -scrdir="/home/mbenidd/Bureau/Elaeocarpines/HF_NMR/3/3_elaeocarpine_c5/"
 Entering Link 1 = /opt/gaussian/g16/l1.exe PID=     10144.
  
 Copyright (c) 1988-2017, Gaussian, Inc.  All Rights Reserved.
  
 This is part of the Gaussian(R) 16 program.  It is based on
 the Gaussian(R) 09 system (copyright 2009, Gaussian, Inc.),
 the Gaussian(R) 03 system (copyright 2003, Gaussian, Inc.),
 the Gaussian(R) 98 system (copyright 1998, Gaussian, Inc.),
 the Gaussian(R) 94 system (copyright 1995, Gaussian, Inc.),
 the Gaussian 92(TM) system (copyright 1992, Gaussian, Inc.),
 the Gaussian 90(TM) system (copyright 1990, Gaussian, Inc.),
 the Gaussian 88(TM) system (copyright 1988, Gaussian, Inc.),
 the Gaussian 86(TM) system (copyright 1986, Carnegie Mellon
 University), and the Gaussian 82(TM) system (copyright 1983,
 Carnegie Mellon University). Gaussian is a federally registered
 trademark of Gaussian, Inc.
  
 This software contains proprietary and confidential information,
 including trade secrets, belonging to Gaussian, Inc.
  
 This software is provided under written license and may be
 used, copied, transmitted, or stored only in accord with that
 written license.
  
 The following legend is applicable only to US Government
 contracts under FAR:
  
                    RESTRICTED RIGHTS LEGEND
  
 Use, reproduction and disclosure by the US Government is
 subject to restrictions as set forth in subparagraphs (a)
 and (c) of the Commercial Computer Software - Restricted
 Rights clause in FAR 52.227-19.
  
 Gaussian, Inc.
 340 Quinnipiac St., Bldg. 40, Wallingford CT 06492
  
  
 ---------------------------------------------------------------
 Warning -- This program may not be used in any manner that
 competes with the business of Gaussian, Inc. or will provide
 assistance to any competitor of Gaussian, Inc.  The licensee
 of this program is prohibited from giving any competitor of
 Gaussian, Inc. access to this program.  By using this program,
 the user acknowledges that Gaussian, Inc. is engaged in the
 business of creating and licensing software in the field of
 computational chemistry and represents and warrants to the
 licensee that it is not a competitor of Gaussian, Inc. and that
 it will not use this program in any manner prohibited above.
 ---------------------------------------------------------------
  

 Cite this work as:
 Gaussian 16, Revision B.01,
 M. J. Frisch, G. W. Trucks, H. B. Schlegel, G. E. Scuseria, 
 M. A. Robb, J. R. Cheeseman, G. Scalmani, V. Barone, 
 G. A. Petersson, H. Nakatsuji, X. Li, M. Caricato, A. V. Marenich, 
 J. Bloino, B. G. Janesko, R. Gomperts, B. Mennucci, H. P. Hratchian, 
 J. V. Ortiz, A. F. Izmaylov, J. L. Sonnenberg, D. Williams-Young, 
 F. Ding, F. Lipparini, F. Egidi, J. Goings, B. Peng, A. Petrone, 
 T. Henderson, D. Ranasinghe, V. G. Zakrzewski, J. Gao, N. Rega, 
 G. Zheng, W. Liang, M. Hada, M. Ehara, K. Toyota, R. Fukuda, 
 J. Hasegawa, M. Ishida, T. Nakajima, Y. Honda, O. Kitao, H. Nakai, 
 T. Vreven, K. Throssell, J. A. Montgomery, Jr., J. E. Peralta, 
 F. Ogliaro, M. J. Bearpark, J. J. Heyd, E. N. Brothers, K. N. Kudin, 
 V. N. Staroverov, T. A. Keith, R. Kobayashi, J. Normand, 
 K. Raghavachari, A. P. Rendell, J. C. Burant, S. S. Iyengar, 
 J. Tomasi, M. Cossi, J. M. Millam, M. Klene, C. Adamo, R. Cammi, 
 J. W. Ochterski, R. L. Martin, K. Morokuma, O. Farkas, 
 J. B. Foresman, and D. J. Fox, Gaussian, Inc., Wallingford CT, 2016.
 
 ******************************************
 Gaussian 16:  EM64L-G16RevB.01 20-Dec-2017
                18-May-2026 
 ******************************************
 %nprocshared=4
 Will use up to    4 processors via shared memory.
 ----------------------------
 # nmr=giao hf/sto-3g pop=nbo
 ----------------------------
 1/38=1,172=1/1;
 2/12=2,17=6,18=5,40=1/2;
 3/6=3,11=9,25=1,30=1/1,2,3,8;
 4//1;
 5/5=2,38=5/2;
 8/6=1,10=90,11=11/1;
 10/13=100,45=16/2;
 6/7=2,8=2,9=2,10=2,28=1,40=1,64=1/1,7;
 99/9=1/99;
 -------------------
 Title Card Required
 -------------------
 Symbolic Z-matrix:
 Charge =  0 Multiplicity = 1
 C                     0.        0.        0. 
 C                     1.4072    0.        0. 
 C                     2.1249    1.1937    0. 
 C                     1.4454    2.4062    0.0097 
 C                     0.0493    2.4305    0.0277 
 C                    -0.6809    1.2369    0.0109 
 C                    -2.1596    1.3392   -0.0164 
 O                    -0.4933    3.6848    0.0507 
 C                    -1.8732    3.753     0.4113 
 C                    -2.7366    2.7153   -0.2975 
 C                    -2.0588    3.7978    1.9396 
 C                    -3.2043    2.9141    2.4407 
 N                    -4.4034    3.0336    1.6168 
 C                    -4.1812    2.9628    0.1587 
 C                    -5.2741    2.0599   -0.4161 
 C                    -6.2854    1.9687    0.7137 
 C                    -5.4112    2.0202    1.9529 
 O                    -2.8563    0.3428    0.1434 
 C                    -0.7035   -1.3307   -0.0187 
 H                    -2.6702    2.8508   -1.3856 
 H                    -2.1922    4.7363    0.0377 
 H                    -4.4324    3.9739   -0.197 
 H                     1.9568   -0.9401   -0.007 
 H                     3.2118    1.1774   -0.0065 
 H                     2.0038    3.3393    0.0129 
 H                    -1.1336    3.5219    2.4595 
 H                    -2.2617    4.8376    2.2294 
 H                    -2.8545    1.8757    2.4879 
 H                    -3.4427    3.2004    3.4722 
 H                    -4.9178    1.0594   -0.67 
 H                    -5.7256    2.4857   -1.3184 
 H                    -6.8846    1.0551    0.6605 
 H                    -6.965     2.8292    0.6849 
 H                    -4.9589    1.0346    2.1206 
 H                    -5.9839    2.2995    2.8424 
 H                    -1.2801   -1.4724    0.9006 
 H                     0.0098   -2.1603   -0.0805 
 H                    -1.3558   -1.4095   -0.894 
 
                          Input orientation:                          
 ---------------------------------------------------------------------
 Center     Atomic      Atomic             Coordinates (Angstroms)
 Number     Number       Type             X           Y           Z
 ---------------------------------------------------------------------
      1          6           0        0.000000    0.000000    0.000000
      2          6           0        1.407200    0.000000    0.000000
      3          6           0        2.124900    1.193700    0.000000
      4          6           0        1.445400    2.406200    0.009700
      5          6           0        0.049300    2.430500    0.027700
      6          6           0       -0.680900    1.236900    0.010900
      7          6           0       -2.159600    1.339200   -0.016400
      8          8           0       -0.493300    3.684800    0.050700
      9          6           0       -1.873200    3.753000    0.411300
     10          6           0       -2.736600    2.715300   -0.297500
     11          6           0       -2.058800    3.797800    1.939600
     12          6           0       -3.204300    2.914100    2.440700
     13          7           0       -4.403400    3.033600    1.616800
     14          6           0       -4.181200    2.962800    0.158700
     15          6           0       -5.274100    2.059900   -0.416100
     16          6           0       -6.285400    1.968700    0.713700
     17          6           0       -5.411200    2.020200    1.952900
     18          8           0       -2.856300    0.342800    0.143400
     19          6           0       -0.703500   -1.330700   -0.018700
     20          1           0       -2.670200    2.850800   -1.385600
     21          1           0       -2.192200    4.736300    0.037700
     22          1           0       -4.432400    3.973900   -0.197000
     23          1           0        1.956800   -0.940100   -0.007000
     24          1           0        3.211800    1.177400   -0.006500
     25          1           0        2.003800    3.339300    0.012900
     26          1           0       -1.133600    3.521900    2.459500
     27          1           0       -2.261700    4.837600    2.229400
     28          1           0       -2.854500    1.875700    2.487900
     29          1           0       -3.442700    3.200400    3.472200
     30          1           0       -4.917800    1.059400   -0.670000
     31          1           0       -5.725600    2.485700   -1.318400
     32          1           0       -6.884600    1.055100    0.660500
     33          1           0       -6.965000    2.829200    0.684900
     34          1           0       -4.958900    1.034600    2.120600
     35          1           0       -5.983900    2.299500    2.842400
     36          1           0       -1.280100   -1.472400    0.900600
     37          1           0        0.009800   -2.160300   -0.080500
     38          1           0       -1.355800   -1.409500   -0.894000
 ---------------------------------------------------------------------
                    Distance matrix (angstroms):
                    1          2          3          4          5
     1  C    0.000000
     2  C    1.407200   0.000000
     3  C    2.437236   1.392843   0.000000
     4  C    2.806969   2.406523   1.389953   0.000000
     5  C    2.431158   2.784240   2.416311   1.396427   0.000000
     6  C    1.411972   2.426974   2.806154   2.426606   1.399341
     7  C    2.541180   3.809959   4.287001   3.759680   2.464167
     8  O    3.718019   4.146350   3.614294   2.322726   1.366826
     9  C    4.214624   5.001520   4.764870   3.603923   2.364775
    10  C    3.866567   4.963108   5.102740   4.204645   2.819238
    11  C    4.735398   5.495315   5.295916   4.235621   3.157365
    12  C    4.971573   5.976197   6.108778   5.271379   4.079504
    13  N    5.586296   6.751285   6.972659   6.097939   4.766079
    14  C    5.126968   6.327210   6.551473   5.656026   4.265869
    15  C    5.677364   7.004006   7.461142   6.741877   5.354707
    16  C    6.625059   7.972530   8.476033   7.775107   6.388449
    17  C    6.097222   7.374660   7.828775   7.137085   5.804464
    18  O    2.880369   4.279662   5.055388   4.772852   3.579719
    19  C    1.505332   2.495229   3.791146   4.310800   3.836077
    20  H    4.144504   5.164508   5.259168   4.368374   3.093501
    21  H    5.219167   5.948919   5.584692   4.319987   3.215764
    22  H    5.956245   7.066231   7.125062   6.086784   4.745335
    23  H    2.170922   1.088989   2.140423   3.385193   3.873074
    24  H    3.420815   2.154738   1.087042   2.151832   3.401887
    25  H    3.894394   3.392200   2.149054   1.087427   2.155506
    26  H    4.442743   4.990850   4.699732   3.727941   2.916172
    27  H    5.786872   6.467876   6.122948   4.957960   3.997791
    28  H    4.225644   5.279203   5.607958   4.991197   3.846094
    29  H    5.843879   6.769067   6.861573   6.042614   4.965017
    30  H    5.075035   6.448012   7.075773   6.539585   5.199883
    31  H    6.379606   7.667706   8.064601   7.293381   5.929966
    32  H    6.996229   8.384715   9.034742   8.463918   7.097262
    33  H    7.548820   8.863814   9.261222   8.448056   7.056294
    34  H    5.491633   6.789298   7.396112   6.881297   5.604537
    35  H    7.012417   8.245926   8.663410   7.951734   6.658769
    36  H    2.148883   3.193841   4.417374   4.823442   4.214485
    37  H    2.161822   2.574122   3.966036   4.787693   4.592245
    38  H    2.150377   3.228017   4.437472   4.819021   4.191591
                    6          7          8          9         10
     6  C    0.000000
     7  C    1.482486   0.000000
     8  O    2.455401   2.878002   0.000000
     9  C    2.812945   2.468073   1.427868   0.000000
    10  C    2.550819   1.518419   2.468515   1.524690   0.000000
    11  C    3.489513   3.143376   2.455912   1.540180   2.576012
    12  C    3.883874   3.099847   3.695348   2.567887   2.784960
    13  N    4.434417   3.251611   4.262114   2.893558   2.558140
    14  C    3.905467   2.598770   3.759462   2.452567   1.535006
    15  C    4.685845   3.221689   5.070922   3.888097   2.623456
    16  C    5.695602   4.236926   6.077252   4.768929   3.764826
    17  C    5.173071   3.861969   5.529466   4.230434   3.563839
    18  O    2.355703   1.226271   4.094060   3.559174   2.416087
    19  C    2.567870   3.041151   5.020383   5.234224   4.536666
    20  H    2.917567   2.102464   2.738139   2.162874   1.098513
    21  H    3.811895   3.397687   1.998020   1.099189   2.119710
    22  H    4.648456   3.484233   3.957454   2.639760   2.114217
    23  H    3.420104   4.705321   5.234121   6.071990   5.956034
    24  H    3.893194   5.373845   4.474158   5.715374   6.150876
    25  H    3.409942   4.619000   2.521172   3.919311   4.791359
    26  H    3.379616   3.456434   2.497767   2.189872   3.289569
    27  H    4.515054   4.158467   3.033632   2.152389   3.333903
    28  H    3.356804   2.653721   3.845524   2.966390   2.911577
    29  H    4.843911   4.157011   4.543156   3.483935   3.865817
    30  H    4.294933   2.848359   5.195030   4.206457   2.763765
    31  H    5.364284   3.965605   5.539787   4.408956   3.166871
    32  H    6.240266   4.781687   6.938004   5.696920   4.569456
    33  H    6.517638   5.079743   6.558747   5.182151   4.342516
    34  H    4.774206   3.534916   5.590137   4.453420   3.689252
    35  H    6.104778   4.870337   6.313425   4.992070   4.536168
    36  H    2.913917   3.085369   5.285650   5.281665   4.592784
    37  H    3.467908   4.117876   5.868178   6.225325   5.600114
    38  H    2.877111   2.995268   5.252452   5.350039   4.390489
                   11         12         13         14         15
    11  C    0.000000
    12  C    1.531077   0.000000
    13  N    2.487037   1.459771   0.000000
    14  C    2.893685   2.482787   1.476632   0.000000
    15  C    4.348307   3.629743   2.416380   1.529723   0.000000
    16  C    4.765772   3.656431   2.343400   2.392471   1.519044
    17  C    3.794552   2.430517   1.468197   2.370770   2.373296
    18  O    3.974842   3.465584   3.435816   2.935983   3.017819
    19  C    5.654493   5.506449   5.950734   5.528111   5.704777
    20  H    3.511065   3.863915   3.471571   2.163453   2.888901
    21  H    2.125042   3.181064   3.206579   2.667595   4.106965
    22  H    3.198445   3.096590   2.043251   1.100885   2.102346
    23  H    6.508609   6.890794   7.673276   7.275653   7.839214
    24  H    6.199438   7.083167   8.004490   7.607325   8.541492
    25  H    4.519636   5.761885   6.611971   6.198164   7.401941
    26  H    1.096545   2.158141   3.411770   3.859293   5.248834
    27  H    1.098334   2.152439   2.866457   3.389270   4.877381
    28  H    2.151334   1.096751   2.120999   2.892593   3.784390
    29  H    2.149635   1.096720   2.096014   3.403104   4.446756
    30  H    4.741595   4.006551   3.064560   2.202783   1.091978
    31  H    5.077558   4.546572   3.265548   2.189662   1.095127
    32  H    5.696213   4.491058   3.314412   3.346565   2.182293
    33  H    5.155895   4.151254   2.733498   2.836244   2.159437
    34  H    4.009815   2.591063   2.135040   2.858640   2.754167
    35  H    4.297250   2.874939   2.130488   3.300294   3.343508
    36  H    5.427790   5.031484   5.529194   5.351429   5.492074
    37  H    6.622603   6.514324   7.023799   6.623281   6.770695
    38  H    5.969880   5.764607   5.944167   5.311127   5.255302
                   16         17         18         19         20
    16  C    0.000000
    17  C    1.517397   0.000000
    18  O    3.837645   3.551827   0.000000
    19  C    6.525340   6.105586   2.731561   0.000000
    20  H    4.272567   4.398700   2.943219   4.818845   0.000000
    21  H    4.987070   4.626786   4.444665   6.247231   2.410265
    22  H    2.878161   3.065463   3.973015   6.486545   2.404053
    23  H    8.770085   8.178753   4.983411   2.688848   6.138452
    24  H    9.557283   8.882887   6.127060   4.649762   6.268980
    25  H    8.430925   7.777265   5.711096   5.398090   4.903133
    26  H    5.656968   4.561755   4.294030   5.465728   4.194795
    27  H    5.168955   4.234802   4.990809   6.747582   4.145174
    28  H    3.863614   2.616070   2.801154   4.603352   3.998598
    29  H    4.148174   2.752478   4.426133   6.341961   4.931247
    30  H    2.147506   2.836580   2.329145   4.888465   2.961909
    31  H    2.170275   3.319178   3.868044   6.440157   3.077870
    32  H    1.093863   2.184633   4.123344   6.660282   5.017194
    33  H    1.096880   2.162545   4.832890   7.550245   4.767887
    34  H    2.147443   1.097318   2.967968   5.317864   4.564008
    35  H    2.175246   1.094168   4.571122   7.017611   5.400048
    36  H    6.076934   5.511041   2.520458   1.094376   5.084206
    37  H    7.570267   7.141326   3.811846   1.095834   5.830678
    38  H    6.188529   6.026106   2.529477   1.094466   4.485474
                   21         22         23         24         25
    21  H    0.000000
    22  H    2.377989   0.000000
    23  H    7.031196   8.062591   0.000000
    24  H    6.470776   8.141898   2.461469   0.000000
    25  H    4.422515   6.470815   4.279704   2.476581   0.000000
    26  H    2.908697   4.259504   5.961849   5.519088   3.982772
    27  H    2.195140   3.368283   7.495268   6.953813   5.035103
    28  H    3.824285   3.755116   6.107525   6.596184   5.645425
    29  H    3.964660   3.878252   7.642197   7.776648   6.453713
    30  H    4.631342   2.992265   7.190111   8.157484   7.319347
    31  H    4.403308   2.268181   8.513234   9.127423   7.889526
    32  H    5.996477   3.907427   9.088274  10.119147   9.200033
    33  H    5.180301   2.915844   9.710039  10.333138   9.008394
    34  H    5.069091   3.779941   7.500202   8.444246   7.631070
    35  H    5.308609   3.801147   9.037079   9.692071   8.537600
    36  H    6.334389   6.387793   3.403616   5.293528   5.892747
    37  H    7.240571   7.574637   2.298934   4.625854   5.850672
    38  H    6.272040   6.239573   3.461275   5.323784   5.887315
                   26         27         28         29         30
    26  H    0.000000
    27  H    1.748320   0.000000
    28  H    2.381654   3.031680   0.000000
    29  H    2.541823   2.370598   1.752043   0.000000
    30  H    5.493437   5.453089   3.859519   4.890565   0.000000
    31  H    6.035951   5.487889   4.806582   5.354650   1.762752
    32  H    6.511183   6.175756   4.500498   4.935043   2.374563
    33  H    6.134677   5.342301   4.588702   4.507042   3.026380
    34  H    4.575416   4.663640   2.295835   2.969238   2.791013
    35  H    5.016601   4.546701   3.177801   2.768748   3.874451
    36  H    5.233991   6.522680   4.025920   5.755434   4.702091
    37  H    6.328219   7.711417   5.575858   7.299215   5.915676
    38  H    5.967750   7.042907   4.947311   6.683564   4.339757
                   31         32         33         34         35
    31  H    0.000000
    32  H    2.702951   0.000000
    33  H    2.380612   1.776088   0.000000
    34  H    3.810543   2.416740   3.050616   0.000000
    35  H    4.172966   2.668423   2.428569   1.780896   0.000000
    36  H    6.352400   6.152749   7.132207   4.615953   6.334315
    37  H    7.484152   7.643339   8.609807   6.303983   8.022319
    38  H    5.869229   6.249668   7.205736   5.295637   7.009756
                   36         37         38
    36  H    0.000000
    37  H    1.760570   0.000000
    38  H    1.797297   1.757938   0.000000
 Stoichiometry    C16H19NO2
 Framework group  C1[X(C16H19NO2)]
 Deg. of freedom   108
 Full point group                 C1      NOp   1
 Largest Abelian subgroup         C1      NOp   1
 Largest concise Abelian subgroup C1      NOp   1
                         Standard orientation:                         
 ---------------------------------------------------------------------
 Center     Atomic      Atomic             Coordinates (Angstroms)
 Number     Number       Type             X           Y           Z
 ---------------------------------------------------------------------
      1          6           0       -2.526293    1.326087    0.181478
      2          6           0       -3.870016    0.935488    0.329983
      3          6           0       -4.258913   -0.387319    0.132617
      4          6           0       -3.307388   -1.341864   -0.207114
      5          6           0       -1.965300   -0.980679   -0.342588
      6          6           0       -1.567177    0.348734   -0.162822
      7          6           0       -0.134222    0.668137   -0.368697
      8          8           0       -1.131954   -2.015125   -0.664564
      9          6           0        0.261356   -1.765628   -0.476825
     10          6           0        0.712699   -0.412940   -1.016459
     11          6           0        0.698578   -2.050115    0.972333
     12          6           0        1.654559   -0.996700    1.538561
     13          7           0        2.695079   -0.617939    0.587357
     14          6           0        2.227883   -0.332634   -0.784055
     15          6           0        2.953668    0.931109   -1.249073
     16          6           0        4.080679    1.080443   -0.241581
     17          6           0        3.460494    0.551061    1.038114
     18          8           0        0.309640    1.768678   -0.059610
     19          6           0       -2.188022    2.777502    0.393590
     20          1           0        0.505756   -0.349711   -2.093449
     21          1           0        0.749310   -2.530803   -1.097007
     22          1           0        2.660913   -1.146238   -1.386119
     23          1           0       -4.629416    1.669168    0.596296
     24          1           0       -5.301890   -0.672420    0.244759
     25          1           0       -3.608364   -2.375774   -0.358572
     26          1           0       -0.168739   -2.147186    1.636222
     27          1           0        1.197727   -3.028246    0.993475
     28          1           0        1.070361   -0.125455    1.858730
     29          1           0        2.121270   -1.398331    2.446122
     30          1           0        2.323644    1.822766   -1.228276
     31          1           0        3.343608    0.829120   -2.267330
     32          1           0        4.417315    2.116936   -0.147277
     33          1           0        4.938618    0.464655   -0.538046
     34          1           0        2.811154    1.320988    1.473632
     35          1           0        4.221564    0.276112    1.774578
     36          1           0       -1.522920    2.894180    1.254802
     37          1           0       -3.085221    3.372269    0.598865
     38          1           0       -1.727249    3.201022   -0.504281
 ---------------------------------------------------------------------
 Rotational constants (GHZ):           0.7884088           0.2895298           0.2422203
 Standard basis: STO-3G (5D, 7F)
 There are   114 symmetry adapted cartesian basis functions of A   symmetry.
 There are   114 symmetry adapted basis functions of A   symmetry.
   114 basis functions,   342 primitive gaussians,   114 cartesian basis functions
    69 alpha electrons       69 beta electrons
       nuclear repulsion energy      1514.3990178989 Hartrees.
 NAtoms=   38 NActive=   38 NUniq=   38 SFac= 1.00D+00 NAtFMM=   60 NAOKFM=F Big=F
 Integral buffers will be    131072 words long.
 Raffenetti 1 integral format.
 Two-electron integral symmetry is turned on.
 One-electron integrals computed using PRISM.
 NBasis=   114 RedAO= T EigKep=  1.74D-01  NBF=   114
 NBsUse=   114 1.00D-06 EigRej= -1.00D+00 NBFU=   114
 ExpMin= 1.69D-01 ExpMax= 1.31D+02 ExpMxC= 1.31D+02 IAcc=3 IRadAn=         5 AccDes= 0.00D+00
 Harris functional with IExCor=  205 and IRadAn=       5 diagonalized for initial guess.
 HarFok:  IExCor=  205 AccDes= 0.00D+00 IRadAn=         5 IDoV= 1 UseB2=F ITyADJ=14
 ICtDFT=  3500011 ScaDFX=  1.000000  1.000000  1.000000  1.000000
 FoFCou: FMM=F IPFlag=           0 FMFlag=      100000 FMFlg1=           0
         NFxFlg=           0 DoJE=T BraDBF=F KetDBF=T FulRan=T
         wScrn=  0.000000 ICntrl=       500 IOpCl=  0 I1Cent=   200000004 NGrid=           0
         NMat0=    1 NMatS0=      1 NMatT0=    0 NMatD0=    1 NMtDS0=    0 NMtDT0=    0
 Petite list used in FoFCou.
 Requested convergence on RMS density matrix=1.00D-08 within 128 cycles.
 Requested convergence on MAX density matrix=1.00D-06.
 Requested convergence on             energy=1.00D-06.
 No special actions if energy rises.
 Integral accuracy reduced to 1.0D-05 until final iterations.
 Initial convergence to 1.0D-05 achieved.  Increase integral accuracy.
 SCF Done:  E(RHF) =  -811.049336617     A.U. after   15 cycles
            NFock= 15  Conv=0.56D-08     -V/T= 2.0093
 Range of M.O.s used for correlation:     1   114
 NBasis=   114 NAE=    69 NBE=    69 NFC=     0 NFV=     0
 NROrb=    114 NOA=    69 NOB=    69 NVA=    45 NVB=    45
          Differentiating once with respect to magnetic field using GIAOs.
          Electric field/nuclear overlap derivatives assumed to be zero.
 FoFCou: FMM=F IPFlag=           0 FMFlag=      100000 FMFlg1=           0
         NFxFlg=           0 DoJE=F BraDBF=F KetDBF=T FulRan=T
         wScrn=  0.000000 ICntrl=      6100 IOpCl=  0 I1Cent=           7 NGrid=          38
         NMat0=    1 NMatS0=      1 NMatT0=    0 NMatD0=    1 NMtDS0=    0 NMtDT0=    0
 Symmetry not used in FoFCou.
 FoFJK:  IHMeth= 1 ICntrl=    6127 DoSepK=F KAlg= 0 I1Cent=           0 FoldK=F
 IRaf=         1 NMat=       1 IRICut=       1 DoRegI=T DoRafI=F ISym2E= 0 IDoP0=0 IntGTp=1.
          There are     3 degrees of freedom in the 1st order CPHF.  IDoFFX=0 NUNeed=     3.
      3 vectors produced by pass  0 Test12= 1.04D-13 3.33D-08 XBig12= 2.38D+01 1.48D+00.
 AX will form     3 AO Fock derivatives at one time.
      3 vectors produced by pass  1 Test12= 1.04D-13 3.33D-08 XBig12= 1.56D-01 2.17D-01.
      3 vectors produced by pass  2 Test12= 1.04D-13 3.33D-08 XBig12= 3.38D-03 1.84D-02.
      3 vectors produced by pass  3 Test12= 1.04D-13 3.33D-08 XBig12= 8.70D-05 1.79D-03.
      3 vectors produced by pass  4 Test12= 1.04D-13 3.33D-08 XBig12= 1.51D-06 1.40D-04.
      3 vectors produced by pass  5 Test12= 1.04D-13 3.33D-08 XBig12= 1.53D-08 1.51D-05.
      3 vectors produced by pass  6 Test12= 1.04D-13 3.33D-08 XBig12= 2.51D-10 2.63D-06.
      3 vectors produced by pass  7 Test12= 1.04D-13 3.33D-08 XBig12= 4.24D-12 3.23D-07.
      2 vectors produced by pass  8 Test12= 1.04D-13 3.33D-08 XBig12= 8.23D-14 3.86D-08.
 InvSVY:  IOpt=1 It=  1 EMax= 1.97D-16
 Solved reduced A of dimension    26 with     3 vectors.
 Calculating GIAO nuclear magnetic shielding tensors.
 SCF GIAO Magnetic shielding tensor (ppm):
      1  C    Isotropic =   113.7783   Anisotropy =   169.4487
   XX=    87.5442   YX=    -7.9244   ZX=    21.9029
   XY=    -3.9111   YY=    37.1865   ZY=   -34.3000
   XZ=    22.9174   YZ=   -34.1243   ZZ=   216.6041
   Eigenvalues:    30.8267    83.7640   226.7441
      2  C    Isotropic =   124.3062   Anisotropy =   142.0531
   XX=    82.3575   YX=    38.8848   ZX=    30.3326
   XY=    33.1937   YY=    82.4447   ZY=   -32.2392
   XZ=    27.9808   YZ=   -31.8622   ZZ=   208.1164
   Eigenvalues:    35.5071   118.4033   219.0083
      3  C    Isotropic =   117.0397   Anisotropy =   168.9053
   XX=    29.7997   YX=   -25.8631   ZX=    27.8624
   XY=   -27.1070   YY=   100.2183   ZY=   -21.3501
   XZ=    26.0099   YZ=   -21.2471   ZZ=   221.1010
   Eigenvalues:    19.1176   102.3581   229.6432
      4  C    Isotropic =   131.2532   Anisotropy =   145.6584
   XX=   112.4005   YX=   -21.5354   ZX=    13.9995
   XY=   -24.5848   YY=    59.7714   ZY=   -28.9447
   XZ=    13.8098   YZ=   -23.3882   ZZ=   221.5876
   Eigenvalues:    48.7835   116.6172   228.3587
      5  C    Isotropic =   106.0501   Anisotropy =   132.8444
   XX=    68.5258   YX=    16.3501   ZX=    21.7373
   XY=     7.0166   YY=    62.7260   ZY=   -24.6615
   XZ=    24.0715   YZ=   -22.7038   ZZ=   186.8986
   Eigenvalues:    45.9509    77.5864   194.6131
      6  C    Isotropic =   132.0537   Anisotropy =   147.4999
   XX=    73.9494   YX=   -17.7720   ZX=    24.9247
   XY=   -14.3065   YY=   103.0509   ZY=   -23.2433
   XZ=    26.1893   YZ=   -31.0562   ZZ=   219.1607
   Eigenvalues:    65.6272   100.1468   230.3870
      7  C    Isotropic =    90.1031   Anisotropy =   142.4853
   XX=    -9.8685   YX=    39.9475   ZX=    63.0604
   XY=    39.9010   YY=   124.0843   ZY=   -34.9215
   XZ=    62.4371   YZ=   -33.9121   ZZ=   156.0936
   Eigenvalues:   -45.1439   130.3600   185.0933
      8  O    Isotropic =   332.9415   Anisotropy =   104.9521
   XX=   258.2939   YX=     0.7319   ZX=    14.3837
   XY=   -30.9972   YY=   341.0543   ZY=    -3.0617
   XZ=    22.4279   YZ=    23.1290   ZZ=   399.4764
   Eigenvalues:   252.9099   343.0050   402.9096
      9  C    Isotropic =   186.6112   Anisotropy =    51.1626
   XX=   219.3160   YX=     8.4005   ZX=     4.3383
   XY=     6.9348   YY=   170.4261   ZY=    -4.7141
   XZ=     4.2564   YZ=    -6.7421   ZZ=   170.0916
   Eigenvalues:   163.2511   175.8630   220.7196
     10  C    Isotropic =   211.5883   Anisotropy =    13.0131
   XX=   214.1005   YX=    -1.6416   ZX=     3.6298
   XY=    -5.0685   YY=   205.3286   ZY=    -3.8232
   XZ=     4.6227   YZ=    -2.3402   ZZ=   215.3357
   Eigenvalues:   203.9188   210.5823   220.2637
     11  C    Isotropic =   217.3821   Anisotropy =    17.9595
   XX=   216.9299   YX=     7.7524   ZX=     6.6989
   XY=     4.9435   YY=   210.4952   ZY=    -2.9523
   XZ=     8.4711   YZ=    -5.2697   ZZ=   224.7213
   Eigenvalues:   203.7822   219.0090   229.3551
     12  C    Isotropic =   203.7684   Anisotropy =    38.8688
   XX=   208.7500   YX=    12.5681   ZX=   -15.7972
   XY=    14.3121   YY=   200.3226   ZY=    -4.6966
   XZ=   -17.1260   YZ=    -8.8381   ZZ=   202.2325
   Eigenvalues:   187.1585   194.4657   229.6809
     13  N    Isotropic =   298.0574   Anisotropy =    56.5688
   XX=   289.1491   YX=    35.1263   ZX=    21.7455
   XY=    48.0545   YY=   285.0772   ZY=   -12.2620
   XZ=    18.6595   YZ=    -4.1797   ZZ=   319.9460
   Eigenvalues:   240.4419   317.9605   335.7700
     14  C    Isotropic =   194.8776   Anisotropy =    32.0502
   XX=   189.4396   YX=     9.3691   ZX=     8.5833
   XY=    14.6588   YY=   184.6277   ZY=   -12.4521
   XZ=    12.9901   YZ=    -9.0666   ZZ=   210.5655
   Eigenvalues:   169.2137   199.1748   216.2444
     15  C    Isotropic =   214.2254   Anisotropy =    26.7999
   XX=   214.6405   YX=    16.9282   ZX=    10.7383
   XY=    19.0642   YY=   213.5340   ZY=    -9.4820
   XZ=     3.8511   YZ=    -5.6157   ZZ=   214.5016
   Eigenvalues:   191.3274   219.2568   232.0920
     16  C    Isotropic =   215.8084   Anisotropy =    16.1131
   XX=   217.1580   YX=    14.8722   ZX=     3.8013
   XY=     8.7155   YY=   205.1983   ZY=    -4.9585
   XZ=     2.9590   YZ=    -6.1636   ZZ=   225.0691
   Eigenvalues:   196.4739   224.4009   226.5505
     17  C    Isotropic =   196.0483   Anisotropy =    50.8941
   XX=   194.7064   YX=    29.8222   ZX=    -2.6289
   XY=    29.6305   YY=   203.2933   ZY=     8.2795
   XZ=     8.8056   YZ=     2.5812   ZZ=   190.1452
   Eigenvalues:   168.8929   189.2744   229.9777
     18  O    Isotropic =  -334.9644   Anisotropy =  1257.0312
   XX=  -455.8426   YX=  -355.1850   ZX=    99.2015
   XY=  -295.9021   YY=  -854.0005   ZY=  -443.8079
   XZ=    96.8718   YZ=  -458.0323   ZZ=   304.9497
   Eigenvalues: -1126.7477  -381.2021   503.0564
     19  C    Isotropic =   218.0750   Anisotropy =    23.1640
   XX=   216.6610   YX=     4.6812   ZX=    -1.1347
   XY=     4.2211   YY=   231.8607   ZY=     3.9457
   XZ=    -0.1777   YZ=     3.7176   ZZ=   205.7032
   Eigenvalues:   205.0039   215.7034   233.5177
     20  H    Isotropic =    31.3743   Anisotropy =    12.4124
   XX=    29.6478   YX=     1.3525   ZX=     3.1565
   XY=     1.9628   YY=    25.3548   ZY=    -3.1822
   XZ=     0.9165   YZ=    -0.0239   ZZ=    39.1204
   Eigenvalues:    24.4589    30.0148    39.6493
     21  H    Isotropic =    29.9960   Anisotropy =    11.1503
   XX=    28.3344   YX=    -2.5174   ZX=    -2.1501
   XY=    -1.2100   YY=    33.2888   ZY=     5.3828
   XZ=    -1.2308   YZ=     5.3947   ZZ=    28.3648
   Eigenvalues:    24.8444    27.7141    37.4296
     22  H    Isotropic =    31.1057   Anisotropy =    11.9103
   XX=    30.0353   YX=    -1.2342   ZX=    -3.8273
   XY=    -1.1016   YY=    32.2396   ZY=     5.4310
   XZ=    -4.2588   YZ=     6.3571   ZZ=    31.0422
   Eigenvalues:    24.6093    29.6619    39.0459
     23  H    Isotropic =    25.9530   Anisotropy =     6.1570
   XX=    29.0888   YX=     1.6208   ZX=    -0.8346
   XY=     1.5718   YY=    27.4009   ZY=     0.9191
   XZ=    -0.8953   YZ=     1.0096   ZZ=    21.3693
   Eigenvalues:    21.0617    26.7397    30.0577
     24  H    Isotropic =    25.2898   Anisotropy =     3.5214
   XX=    26.8807   YX=     0.0176   ZX=    -0.6631
   XY=    -0.4129   YY=    27.2400   ZY=     1.1806
   XZ=    -0.8458   YZ=     1.0910   ZZ=    21.7488
   Eigenvalues:    21.4325    26.7995    27.6374
     25  H    Isotropic =    25.7071   Anisotropy =     7.0485
   XX=    30.0945   YX=     1.2968   ZX=    -0.7734
   XY=     0.8359   YY=    26.4794   ZY=     1.2051
   XZ=    -0.8528   YZ=     1.4284   ZZ=    20.5475
   Eigenvalues:    20.1630    26.5522    30.4061
     26  H    Isotropic =    32.6101   Anisotropy =    11.6449
   XX=    35.5049   YX=     3.0251   ZX=    -4.1672
   XY=     2.6752   YY=    28.1711   ZY=    -2.5237
   XZ=    -2.7487   YZ=    -6.0194   ZZ=    34.1543
   Eigenvalues:    25.8371    31.6198    40.3734
     27  H    Isotropic =    31.4675   Anisotropy =    15.3979
   XX=    27.6270   YX=    -3.6398   ZX=     2.2763
   XY=    -3.4542   YY=    39.9802   ZY=    -2.0750
   XZ=     2.7846   YZ=    -3.7132   ZZ=    26.7952
   Eigenvalues:    24.6460    28.0237    41.7327
     28  H    Isotropic =    33.7984   Anisotropy =     6.9544
   XX=    34.1371   YX=    -2.4109   ZX=    -2.5478
   XY=    -1.7406   YY=    33.2110   ZY=     4.0407
   XZ=     0.0159   YZ=     2.9694   ZZ=    34.0471
   Eigenvalues:    29.9517    33.0088    38.4346
     29  H    Isotropic =    31.9655   Anisotropy =    14.6564
   XX=    29.3361   YX=     1.3563   ZX=     3.8124
   XY=     0.5800   YY=    28.3623   ZY=    -4.8788
   XZ=     5.4990   YZ=    -5.6074   ZZ=    38.1980
   Eigenvalues:    24.2747    29.8852    41.7364
     30  H    Isotropic =    31.3090   Anisotropy =    11.4906
   XX=    31.3599   YX=    -3.8692   ZX=     1.6175
   XY=    -2.4824   YY=    37.1229   ZY=    -2.5435
   XZ=    -0.4877   YZ=    -2.2861   ZZ=    25.4441
   Eigenvalues:    24.9637    29.9938    38.9694
     31  H    Isotropic =    31.9179   Anisotropy =    14.9130
   XX=    29.1710   YX=     1.5651   ZX=    -4.0526
   XY=     2.4191   YY=    26.6150   ZY=    -1.5054
   XZ=    -5.0745   YZ=    -0.9340   ZZ=    39.9676
   Eigenvalues:    25.4039    28.4898    41.8599
     32  H    Isotropic =    32.1053   Anisotropy =    15.4509
   XX=    31.3499   YX=     6.9170   ZX=     0.2469
   XY=     7.0303   YY=    37.9775   ZY=     0.2258
   XZ=     0.6010   YZ=     0.5946   ZZ=    26.9886
   Eigenvalues:    26.8154    27.0947    42.4060
     33  H    Isotropic =    31.7976   Anisotropy =    14.8687
   XX=    40.0938   YX=    -3.2762   ZX=    -3.4949
   XY=    -2.9828   YY=    27.3670   ZY=     0.7599
   XZ=    -3.2993   YZ=     0.9163   ZZ=    27.9321
   Eigenvalues:    26.6341    27.0487    41.7101
     34  H    Isotropic =    32.4800   Anisotropy =     9.9673
   XX=    30.4816   YX=     0.1446   ZX=    -3.0565
   XY=    -0.9414   YY=    34.5601   ZY=     5.2390
   XZ=    -0.6912   YZ=     5.3093   ZZ=    32.3982
   Eigenvalues:    27.5656    30.7494    39.1248
     35  H    Isotropic =    31.6767   Anisotropy =    14.4208
   XX=    34.2100   YX=     0.4344   ZX=     6.3559
   XY=     1.8101   YY=    26.4505   ZY=    -0.9744
   XZ=     7.6429   YZ=    -1.5743   ZZ=    34.3696
   Eigenvalues:    25.1245    28.6151    41.2906
     36  H    Isotropic =    30.8266   Anisotropy =    10.7459
   XX=    32.4600   YX=     1.6776   ZX=     4.4046
   XY=     1.0243   YY=    29.6128   ZY=     2.9880
   XZ=     4.7020   YZ=     5.8980   ZZ=    30.4070
   Eigenvalues:    24.8023    29.6871    37.9905
     37  H    Isotropic =    31.0275   Anisotropy =    12.3328
   XX=    34.8981   YX=    -3.9328   ZX=    -2.0893
   XY=    -4.6532   YY=    33.8328   ZY=     2.3122
   XZ=    -2.0156   YZ=     1.7496   ZZ=    24.3516
   Eigenvalues:    23.7897    30.0435    39.2493
     38  H    Isotropic =    31.3305   Anisotropy =    10.1623
   XX=    30.5554   YX=     1.3986   ZX=    -4.2008
   XY=     1.3966   YY=    33.4053   ZY=    -2.5236
   XZ=    -3.6684   YZ=    -6.3648   ZZ=    30.0308
   Eigenvalues:    25.4817    30.4045    38.1054
 End of Minotr F.D. properties file   721 does not exist.
 End of Minotr F.D. properties file   722 does not exist.
 End of Minotr F.D. properties file   788 does not exist.

 **********************************************************************

            Population analysis using the SCF Density.

 **********************************************************************

 Orbital symmetries:
       Occupied  (A) (A) (A) (A) (A) (A) (A) (A) (A) (A) (A) (A)
                 (A) (A) (A) (A) (A) (A) (A) (A) (A) (A) (A) (A)
                 (A) (A) (A) (A) (A) (A) (A) (A) (A) (A) (A) (A)
                 (A) (A) (A) (A) (A) (A) (A) (A) (A) (A) (A) (A)
                 (A) (A) (A) (A) (A) (A) (A) (A) (A) (A) (A) (A)
                 (A) (A) (A) (A) (A) (A) (A) (A) (A)
       Virtual   (A) (A) (A) (A) (A) (A) (A) (A) (A) (A) (A) (A)
                 (A) (A) (A) (A) (A) (A) (A) (A) (A) (A) (A) (A)
                 (A) (A) (A) (A) (A) (A) (A) (A) (A) (A) (A) (A)
                 (A) (A) (A) (A) (A) (A) (A) (A) (A)
 The electronic state is 1-A.
 Alpha  occ. eigenvalues --  -20.30238 -20.26557 -15.31047 -11.11962 -11.11249
 Alpha  occ. eigenvalues --  -11.10069 -11.07827 -11.07587 -11.06881 -11.06469
 Alpha  occ. eigenvalues --  -11.05361 -11.05356 -11.04480 -11.04065 -11.04018
 Alpha  occ. eigenvalues --  -11.03867 -11.02935 -11.02213 -11.01914  -1.34720
 Alpha  occ. eigenvalues --   -1.32080  -1.19426  -1.09884  -1.05343  -1.02835
 Alpha  occ. eigenvalues --   -0.99205  -0.97847  -0.95330  -0.91943  -0.88280
 Alpha  occ. eigenvalues --   -0.84687  -0.80209  -0.77823  -0.75807  -0.73935
 Alpha  occ. eigenvalues --   -0.72547  -0.66695  -0.66241  -0.64541  -0.62422
 Alpha  occ. eigenvalues --   -0.61371  -0.60005  -0.58213  -0.57927  -0.55450
 Alpha  occ. eigenvalues --   -0.55181  -0.53896  -0.52988  -0.52870  -0.52065
 Alpha  occ. eigenvalues --   -0.51387  -0.50533  -0.49766  -0.48003  -0.46675
 Alpha  occ. eigenvalues --   -0.45832  -0.44970  -0.44520  -0.44357  -0.43610
 Alpha  occ. eigenvalues --   -0.42872  -0.42263  -0.40488  -0.38367  -0.36912
 Alpha  occ. eigenvalues --   -0.31519  -0.27600  -0.27445  -0.24361
 Alpha virt. eigenvalues --    0.21154   0.26825   0.34395   0.49254   0.50981
 Alpha virt. eigenvalues --    0.53093   0.54436   0.55640   0.58423   0.59091
 Alpha virt. eigenvalues --    0.59561   0.60405   0.61561   0.63720   0.64326
 Alpha virt. eigenvalues --    0.65998   0.67416   0.68639   0.69037   0.69249
 Alpha virt. eigenvalues --    0.70403   0.72123   0.73153   0.73377   0.73711
 Alpha virt. eigenvalues --    0.73937   0.74511   0.75847   0.76343   0.76796
 Alpha virt. eigenvalues --    0.78263   0.78928   0.79529   0.79893   0.81293
 Alpha virt. eigenvalues --    0.83346   0.85112   0.86013   0.86674   0.87488
 Alpha virt. eigenvalues --    0.90051   0.93896   1.00888   1.11956   1.13522
          Condensed to atoms (all electrons):
               1          2          3          4          5          6
     1  C    4.757896   0.506243  -0.028880  -0.010239  -0.027879   0.496100
     2  C    0.506243   4.808436   0.503590  -0.031774  -0.011191  -0.030983
     3  C   -0.028880   0.503590   4.757849   0.510084  -0.028931  -0.009459
     4  C   -0.010239  -0.031774   0.510084   4.808378   0.497923  -0.031886
     5  C   -0.027879  -0.011191  -0.028931   0.497923   4.747611   0.489914
     6  C    0.496100  -0.030983  -0.009459  -0.031886   0.489914   4.876933
     7  C   -0.023364   0.000759   0.000018   0.000813  -0.029879   0.389408
     8  O    0.000242   0.000008   0.000352  -0.027852   0.295332  -0.016495
     9  C    0.000022  -0.000000  -0.000019   0.001749  -0.039484  -0.006464
    10  C    0.000595  -0.000007  -0.000000  -0.000027  -0.005594  -0.034466
    11  C   -0.000001  -0.000000   0.000000   0.000003  -0.000833   0.000275
    12  C   -0.000000   0.000000  -0.000000   0.000000   0.000004  -0.000085
    13  N    0.000000  -0.000000  -0.000000  -0.000000   0.000000  -0.000001
    14  C   -0.000003   0.000000  -0.000000   0.000000   0.000014   0.000561
    15  C   -0.000000   0.000000   0.000000  -0.000000  -0.000000  -0.000003
    16  C   -0.000000   0.000000  -0.000000   0.000000   0.000000   0.000000
    17  C   -0.000000   0.000000  -0.000000   0.000000  -0.000000  -0.000000
    18  O   -0.001121  -0.000004  -0.000000  -0.000002   0.000340  -0.028834
    19  C    0.381382  -0.030391   0.000888   0.000013   0.000710  -0.023874
    20  H   -0.000017   0.000000   0.000000  -0.000005   0.000059  -0.000203
    21  H    0.000001   0.000000   0.000000  -0.000039   0.002520  -0.000031
    22  H    0.000000  -0.000000  -0.000000  -0.000000  -0.000001  -0.000019
    23  H   -0.024994   0.394332  -0.026893   0.001431   0.000048   0.001248
    24  H    0.001328  -0.024804   0.393723  -0.025053   0.001361   0.000009
    25  H    0.000039   0.001394  -0.024767   0.393399  -0.025343   0.001236
    26  H    0.000001  -0.000000   0.000002  -0.000071   0.000432  -0.000015
    27  H    0.000000  -0.000000  -0.000000   0.000001  -0.000013  -0.000001
    28  H   -0.000005   0.000000   0.000000   0.000000   0.000001  -0.000023
    29  H    0.000000  -0.000000   0.000000   0.000000  -0.000000   0.000002
    30  H    0.000000  -0.000000   0.000000   0.000000  -0.000000  -0.000000
    31  H   -0.000000   0.000000   0.000000   0.000000   0.000000   0.000000
    32  H    0.000000  -0.000000   0.000000  -0.000000  -0.000000  -0.000000
    33  H   -0.000000   0.000000  -0.000000  -0.000000   0.000000  -0.000000
    34  H   -0.000000   0.000000   0.000000   0.000000  -0.000000   0.000001
    35  H    0.000000  -0.000000  -0.000000   0.000000   0.000000   0.000000
    36  H   -0.021143   0.000641  -0.000023   0.000002  -0.000001  -0.001655
    37  H   -0.020467  -0.005696   0.000063  -0.000000  -0.000016   0.001119
    38  H   -0.021089   0.000793  -0.000024   0.000002   0.000001  -0.001963
               7          8          9         10         11         12
     1  C   -0.023364   0.000242   0.000022   0.000595  -0.000001  -0.000000
     2  C    0.000759   0.000008  -0.000000  -0.000007  -0.000000   0.000000
     3  C    0.000018   0.000352  -0.000019  -0.000000   0.000000  -0.000000
     4  C    0.000813  -0.027852   0.001749  -0.000027   0.000003   0.000000
     5  C   -0.029879   0.295332  -0.039484  -0.005594  -0.000833   0.000004
     6  C    0.389408  -0.016495  -0.006464  -0.034466   0.000275  -0.000085
     7  C    4.771038  -0.001838  -0.025514   0.353791  -0.001148  -0.000722
     8  O   -0.001838   7.791320   0.264636  -0.014636  -0.018262   0.000228
     9  C   -0.025514   0.264636   4.745770   0.355297   0.353507  -0.020031
    10  C    0.353791  -0.014636   0.355297   4.825251  -0.023535  -0.007404
    11  C   -0.001148  -0.018262   0.353507  -0.023535   4.773611   0.359574
    12  C   -0.000722   0.000228  -0.020031  -0.007404   0.359574   4.703261
    13  N   -0.000427   0.000000  -0.002860  -0.016387  -0.019034   0.330436
    14  C   -0.018271   0.000241  -0.024137   0.358340  -0.004594  -0.030601
    15  C   -0.001215  -0.000001   0.000661  -0.017501   0.000002   0.000974
    16  C    0.000011   0.000000  -0.000010   0.000765  -0.000014   0.001373
    17  C    0.000039   0.000000   0.000021   0.000742   0.001049  -0.034288
    18  O    0.431756   0.000000   0.000284  -0.024397   0.000002  -0.000193
    19  C   -0.002588  -0.000001  -0.000000   0.000007  -0.000000   0.000000
    20  H   -0.025179  -0.000359  -0.020279   0.379765   0.001142   0.000041
    21  H    0.001395  -0.021685   0.380997  -0.025732  -0.026751   0.001035
    22  H    0.001256   0.000010  -0.003585  -0.028767   0.000181   0.001492
    23  H   -0.000014   0.000000  -0.000000   0.000000  -0.000000  -0.000000
    24  H    0.000001  -0.000005   0.000000  -0.000000  -0.000000   0.000000
    25  H   -0.000019  -0.001116   0.000036   0.000001  -0.000001   0.000000
    26  H    0.000019  -0.002192  -0.020366   0.000621   0.380442  -0.019954
    27  H   -0.000003   0.000533  -0.022524   0.001160   0.384158  -0.022522
    28  H   -0.000347   0.000010  -0.000658   0.000281  -0.025378   0.377197
    29  H    0.000008  -0.000004   0.001122   0.000012  -0.020604   0.383067
    30  H   -0.000270  -0.000000   0.000016  -0.003521   0.000001  -0.000023
    31  H    0.000005   0.000000  -0.000007   0.000568  -0.000001  -0.000016
    32  H   -0.000000  -0.000000   0.000000  -0.000015   0.000000  -0.000028
    33  H   -0.000000  -0.000000   0.000000  -0.000009   0.000000  -0.000005
    34  H   -0.000026   0.000000   0.000004   0.000075   0.000021  -0.005424
    35  H   -0.000001  -0.000000  -0.000001  -0.000020  -0.000004   0.000134
    36  H   -0.000038  -0.000000  -0.000000  -0.000003   0.000000  -0.000000
    37  H    0.000014   0.000000   0.000000   0.000000  -0.000000   0.000000
    38  H   -0.000103  -0.000000  -0.000000  -0.000003  -0.000000  -0.000000
              13         14         15         16         17         18
     1  C    0.000000  -0.000003  -0.000000  -0.000000  -0.000000  -0.001121
     2  C   -0.000000   0.000000   0.000000   0.000000   0.000000  -0.000004
     3  C   -0.000000  -0.000000   0.000000  -0.000000  -0.000000  -0.000000
     4  C   -0.000000   0.000000  -0.000000   0.000000   0.000000  -0.000002
     5  C    0.000000   0.000014  -0.000000   0.000000  -0.000000   0.000340
     6  C   -0.000001   0.000561  -0.000003   0.000000  -0.000000  -0.028834
     7  C   -0.000427  -0.018271  -0.001215   0.000011   0.000039   0.431756
     8  O    0.000000   0.000241  -0.000001   0.000000   0.000000   0.000000
     9  C   -0.002860  -0.024137   0.000661  -0.000010   0.000021   0.000284
    10  C   -0.016387   0.358340  -0.017501   0.000765   0.000742  -0.024397
    11  C   -0.019034  -0.004594   0.000002  -0.000014   0.001049   0.000002
    12  C    0.330436  -0.030601   0.000974   0.001373  -0.034288  -0.000193
    13  N    6.511820   0.325275  -0.025882  -0.030609   0.331230   0.000059
    14  C    0.325275   4.738075   0.364350  -0.034992  -0.045310  -0.000514
    15  C   -0.025882   0.364350   4.769150   0.361875  -0.038060  -0.001558
    16  C   -0.030609  -0.034992   0.361875   4.750788   0.366182   0.000008
    17  C    0.331230  -0.045310  -0.038060   0.366182   4.716803  -0.000064
    18  O    0.000059  -0.000514  -0.001558   0.000008  -0.000064   7.861464
    19  C    0.000000  -0.000000  -0.000000  -0.000000  -0.000000  -0.001722
    20  H    0.000695  -0.019458  -0.001147   0.000002  -0.000021  -0.000123
    21  H    0.000048  -0.002489   0.000013  -0.000000   0.000001  -0.000007
    22  H   -0.032895   0.381365  -0.027696   0.000321   0.002096  -0.000013
    23  H    0.000000  -0.000000   0.000000  -0.000000  -0.000000   0.000000
    24  H   -0.000000   0.000000  -0.000000   0.000000   0.000000  -0.000000
    25  H   -0.000000  -0.000000  -0.000000   0.000000   0.000000   0.000000
    26  H    0.000826   0.000032   0.000000   0.000000  -0.000023  -0.000000
    27  H   -0.000366   0.000047   0.000001  -0.000000  -0.000004  -0.000000
    28  H   -0.022305  -0.000993   0.000062   0.000041  -0.004925  -0.000271
    29  H   -0.022315   0.001636  -0.000027   0.000000  -0.001088   0.000003
    30  H    0.000368  -0.019996   0.383130  -0.021631  -0.000243   0.000652
    31  H    0.000903  -0.019910   0.384620  -0.020170   0.001583   0.000025
    32  H    0.001049   0.001487  -0.019565   0.384301  -0.019256   0.000004
    33  H   -0.000532  -0.000232  -0.022143   0.383844  -0.021671  -0.000000
    34  H   -0.020599  -0.000192  -0.000849  -0.023302   0.378672   0.000064
    35  H   -0.021460   0.001897   0.001532  -0.019774   0.382844   0.000001
    36  H   -0.000000   0.000000   0.000000  -0.000000  -0.000000  -0.000548
    37  H   -0.000000  -0.000000   0.000000  -0.000000   0.000000   0.000067
    38  H    0.000000  -0.000000  -0.000000   0.000000   0.000000  -0.000257
              19         20         21         22         23         24
     1  C    0.381382  -0.000017   0.000001   0.000000  -0.024994   0.001328
     2  C   -0.030391   0.000000   0.000000  -0.000000   0.394332  -0.024804
     3  C    0.000888   0.000000   0.000000  -0.000000  -0.026893   0.393723
     4  C    0.000013  -0.000005  -0.000039  -0.000000   0.001431  -0.025053
     5  C    0.000710   0.000059   0.002520  -0.000001   0.000048   0.001361
     6  C   -0.023874  -0.000203  -0.000031  -0.000019   0.001248   0.000009
     7  C   -0.002588  -0.025179   0.001395   0.001256  -0.000014   0.000001
     8  O   -0.000001  -0.000359  -0.021685   0.000010   0.000000  -0.000005
     9  C   -0.000000  -0.020279   0.380997  -0.003585  -0.000000   0.000000
    10  C    0.000007   0.379765  -0.025732  -0.028767   0.000000  -0.000000
    11  C   -0.000000   0.001142  -0.026751   0.000181  -0.000000  -0.000000
    12  C    0.000000   0.000041   0.001035   0.001492  -0.000000   0.000000
    13  N    0.000000   0.000695   0.000048  -0.032895   0.000000  -0.000000
    14  C   -0.000000  -0.019458  -0.002489   0.381365  -0.000000   0.000000
    15  C   -0.000000  -0.001147   0.000013  -0.027696   0.000000  -0.000000
    16  C   -0.000000   0.000002  -0.000000   0.000321  -0.000000   0.000000
    17  C   -0.000000  -0.000021   0.000001   0.002096  -0.000000   0.000000
    18  O   -0.001722  -0.000123  -0.000007  -0.000013   0.000000  -0.000000
    19  C    4.713079   0.000000  -0.000000   0.000000  -0.004303  -0.000016
    20  H    0.000000   0.617689  -0.003668  -0.002872  -0.000000  -0.000000
    21  H   -0.000000  -0.003668   0.631514   0.000307   0.000000  -0.000000
    22  H    0.000000  -0.002872   0.000307   0.661404   0.000000  -0.000000
    23  H   -0.004303  -0.000000   0.000000   0.000000   0.605257  -0.003752
    24  H   -0.000016  -0.000000  -0.000000  -0.000000  -0.003752   0.593336
    25  H    0.000000  -0.000000  -0.000005   0.000000  -0.000033  -0.003737
    26  H    0.000000  -0.000028   0.001599   0.000002   0.000000  -0.000000
    27  H    0.000000  -0.000029  -0.008254  -0.000049  -0.000000   0.000000
    28  H   -0.000000   0.000003  -0.000022  -0.000109  -0.000000   0.000000
    29  H   -0.000000   0.000002  -0.000037  -0.000016   0.000000  -0.000000
    30  H    0.000000   0.000013  -0.000001   0.001871   0.000000   0.000000
    31  H   -0.000000   0.000068   0.000000  -0.006298  -0.000000   0.000000
    32  H    0.000000  -0.000000   0.000000  -0.000020   0.000000  -0.000000
    33  H   -0.000000  -0.000000   0.000000   0.000047   0.000000   0.000000
    34  H   -0.000000  -0.000001  -0.000000  -0.000097  -0.000000   0.000000
    35  H    0.000000   0.000001   0.000000  -0.000029   0.000000  -0.000000
    36  H    0.380756  -0.000000  -0.000000  -0.000000   0.000076   0.000000
    37  H    0.382799  -0.000000   0.000000   0.000000   0.000140  -0.000003
    38  H    0.380544   0.000001   0.000000  -0.000000   0.000068   0.000000
              25         26         27         28         29         30
     1  C    0.000039   0.000001   0.000000  -0.000005   0.000000   0.000000
     2  C    0.001394  -0.000000  -0.000000   0.000000  -0.000000  -0.000000
     3  C   -0.024767   0.000002  -0.000000   0.000000   0.000000   0.000000
     4  C    0.393399  -0.000071   0.000001   0.000000   0.000000   0.000000
     5  C   -0.025343   0.000432  -0.000013   0.000001  -0.000000  -0.000000
     6  C    0.001236  -0.000015  -0.000001  -0.000023   0.000002  -0.000000
     7  C   -0.000019   0.000019  -0.000003  -0.000347   0.000008  -0.000270
     8  O   -0.001116  -0.002192   0.000533   0.000010  -0.000004  -0.000000
     9  C    0.000036  -0.020366  -0.022524  -0.000658   0.001122   0.000016
    10  C    0.000001   0.000621   0.001160   0.000281   0.000012  -0.003521
    11  C   -0.000001   0.380442   0.384158  -0.025378  -0.020604   0.000001
    12  C    0.000000  -0.019954  -0.022522   0.377197   0.383067  -0.000023
    13  N   -0.000000   0.000826  -0.000366  -0.022305  -0.022315   0.000368
    14  C   -0.000000   0.000032   0.000047  -0.000993   0.001636  -0.019996
    15  C   -0.000000   0.000000   0.000001   0.000062  -0.000027   0.383130
    16  C    0.000000   0.000000  -0.000000   0.000041   0.000000  -0.021631
    17  C    0.000000  -0.000023  -0.000004  -0.004925  -0.001088  -0.000243
    18  O    0.000000  -0.000000  -0.000000  -0.000271   0.000003   0.000652
    19  C    0.000000   0.000000   0.000000  -0.000000  -0.000000   0.000000
    20  H   -0.000000  -0.000028  -0.000029   0.000003   0.000002   0.000013
    21  H   -0.000005   0.001599  -0.008254  -0.000022  -0.000037  -0.000001
    22  H    0.000000   0.000002  -0.000049  -0.000109  -0.000016   0.001871
    23  H   -0.000033   0.000000  -0.000000  -0.000000   0.000000   0.000000
    24  H   -0.003737  -0.000000   0.000000   0.000000  -0.000000   0.000000
    25  H    0.589686  -0.000003   0.000000   0.000000  -0.000000  -0.000000
    26  H   -0.000003   0.620197  -0.023013  -0.003860  -0.000673  -0.000000
    27  H    0.000000  -0.023013   0.627490   0.002007  -0.004479   0.000000
    28  H    0.000000  -0.003860   0.002007   0.661272  -0.027292   0.000001
    29  H   -0.000000  -0.000673  -0.004479  -0.027292   0.627045   0.000001
    30  H   -0.000000  -0.000000   0.000000   0.000001   0.000001   0.615874
    31  H   -0.000000  -0.000000  -0.000000  -0.000001   0.000001  -0.023828
    32  H   -0.000000  -0.000000   0.000000   0.000000  -0.000000  -0.004648
    33  H    0.000000   0.000000  -0.000000  -0.000002   0.000001   0.001886
    34  H   -0.000000  -0.000001  -0.000001   0.002072  -0.000335   0.000011
    35  H   -0.000000   0.000000   0.000000  -0.000219   0.000338  -0.000011
    36  H   -0.000000   0.000000  -0.000000   0.000001  -0.000000   0.000000
    37  H    0.000000   0.000000  -0.000000  -0.000000  -0.000000  -0.000000
    38  H   -0.000000  -0.000000   0.000000   0.000000  -0.000000   0.000001
              31         32         33         34         35         36
     1  C   -0.000000   0.000000  -0.000000  -0.000000   0.000000  -0.021143
     2  C    0.000000  -0.000000   0.000000   0.000000  -0.000000   0.000641
     3  C    0.000000   0.000000  -0.000000   0.000000  -0.000000  -0.000023
     4  C    0.000000  -0.000000  -0.000000   0.000000   0.000000   0.000002
     5  C    0.000000  -0.000000   0.000000  -0.000000   0.000000  -0.000001
     6  C    0.000000  -0.000000  -0.000000   0.000001   0.000000  -0.001655
     7  C    0.000005  -0.000000  -0.000000  -0.000026  -0.000001  -0.000038
     8  O    0.000000  -0.000000  -0.000000   0.000000  -0.000000  -0.000000
     9  C   -0.000007   0.000000   0.000000   0.000004  -0.000001  -0.000000
    10  C    0.000568  -0.000015  -0.000009   0.000075  -0.000020  -0.000003
    11  C   -0.000001   0.000000   0.000000   0.000021  -0.000004   0.000000
    12  C   -0.000016  -0.000028  -0.000005  -0.005424   0.000134  -0.000000
    13  N    0.000903   0.001049  -0.000532  -0.020599  -0.021460  -0.000000
    14  C   -0.019910   0.001487  -0.000232  -0.000192   0.001897   0.000000
    15  C    0.384620  -0.019565  -0.022143  -0.000849   0.001532   0.000000
    16  C   -0.020170   0.384301   0.383844  -0.023302  -0.019774  -0.000000
    17  C    0.001583  -0.019256  -0.021671   0.378672   0.382844  -0.000000
    18  O    0.000025   0.000004  -0.000000   0.000064   0.000001  -0.000548
    19  C   -0.000000   0.000000  -0.000000  -0.000000   0.000000   0.380756
    20  H    0.000068  -0.000000  -0.000000  -0.000001   0.000001  -0.000000
    21  H    0.000000   0.000000   0.000000  -0.000000   0.000000  -0.000000
    22  H   -0.006298  -0.000020   0.000047  -0.000097  -0.000029  -0.000000
    23  H   -0.000000   0.000000   0.000000  -0.000000   0.000000   0.000076
    24  H    0.000000  -0.000000   0.000000   0.000000  -0.000000   0.000000
    25  H   -0.000000  -0.000000   0.000000  -0.000000  -0.000000  -0.000000
    26  H   -0.000000  -0.000000   0.000000  -0.000001   0.000000   0.000000
    27  H   -0.000000   0.000000  -0.000000  -0.000001   0.000000  -0.000000
    28  H   -0.000001   0.000000  -0.000002   0.002072  -0.000219   0.000001
    29  H    0.000001  -0.000000   0.000001  -0.000335   0.000338  -0.000000
    30  H   -0.023828  -0.004648   0.001886   0.000011  -0.000011   0.000000
    31  H    0.632092   0.000300  -0.004756  -0.000010  -0.000035   0.000000
    32  H    0.000300   0.625327  -0.023029  -0.003487   0.000042  -0.000000
    33  H   -0.004756  -0.023029   0.631290   0.001879  -0.003859   0.000000
    34  H   -0.000010  -0.003487   0.001879   0.648722  -0.026453   0.000000
    35  H   -0.000035   0.000042  -0.003859  -0.026453   0.626580  -0.000000
    36  H    0.000000  -0.000000   0.000000   0.000000  -0.000000   0.605578
    37  H   -0.000000  -0.000000   0.000000  -0.000000  -0.000000  -0.021950
    38  H    0.000000   0.000000  -0.000000  -0.000000   0.000000  -0.018389
              37         38
     1  C   -0.020467  -0.021089
     2  C   -0.005696   0.000793
     3  C    0.000063  -0.000024
     4  C   -0.000000   0.000002
     5  C   -0.000016   0.000001
     6  C    0.001119  -0.001963
     7  C    0.000014  -0.000103
     8  O    0.000000  -0.000000
     9  C    0.000000  -0.000000
    10  C    0.000000  -0.000003
    11  C   -0.000000  -0.000000
    12  C    0.000000  -0.000000
    13  N   -0.000000   0.000000
    14  C   -0.000000  -0.000000
    15  C    0.000000  -0.000000
    16  C   -0.000000   0.000000
    17  C    0.000000   0.000000
    18  O    0.000067  -0.000257
    19  C    0.382799   0.380544
    20  H   -0.000000   0.000001
    21  H    0.000000   0.000000
    22  H    0.000000  -0.000000
    23  H    0.000140   0.000068
    24  H   -0.000003   0.000000
    25  H    0.000000  -0.000000
    26  H    0.000000  -0.000000
    27  H   -0.000000   0.000000
    28  H   -0.000000   0.000000
    29  H   -0.000000  -0.000000
    30  H   -0.000000   0.000001
    31  H   -0.000000   0.000000
    32  H   -0.000000   0.000000
    33  H    0.000000  -0.000000
    34  H   -0.000000  -0.000000
    35  H   -0.000000   0.000000
    36  H   -0.021950  -0.018389
    37  H    0.624744  -0.022116
    38  H   -0.022116   0.609305
 Mulliken charges:
               1
     1  C    0.035351
     2  C   -0.081345
     3  C   -0.047574
     4  C   -0.086851
     5  C    0.132895
     6  C   -0.070348
     7  C    0.180638
     8  O   -0.248469
     9  C    0.081816
    10  C   -0.075244
    11  C   -0.113808
    12  C   -0.017520
    13  N   -0.287039
    14  C    0.048370
    15  C   -0.110725
    16  C   -0.099009
    17  C   -0.016309
    18  O   -0.235100
    19  C   -0.177282
    20  H    0.073907
    21  H    0.069291
    22  H    0.052114
    23  H    0.057388
    24  H    0.067613
    25  H    0.069233
    26  H    0.066025
    27  H    0.065860
    28  H    0.043464
    29  H    0.063634
    30  H    0.070349
    31  H    0.054867
    32  H    0.057538
    33  H    0.057292
    34  H    0.049256
    35  H    0.058497
    36  H    0.076694
    37  H    0.061301
    38  H    0.073228
 Sum of Mulliken charges =  -0.00000
 Mulliken charges with hydrogens summed into heavy atoms:
               1
     1  C    0.035351
     2  C   -0.023957
     3  C    0.020038
     4  C   -0.017618
     5  C    0.132895
     6  C   -0.070348
     7  C    0.180638
     8  O   -0.248469
     9  C    0.151107
    10  C   -0.001337
    11  C    0.018078
    12  C    0.089578
    13  N   -0.287039
    14  C    0.100484
    15  C    0.014492
    16  C    0.015822
    17  C    0.091444
    18  O   -0.235100
    19  C    0.033941
 Electronic spatial extent (au):  <R**2>=           4738.4051
 Charge=              0.0000 electrons
 Dipole moment (field-independent basis, Debye):
    X=             -0.4674    Y=              0.1945    Z=             -0.0411  Tot=              0.5079
 Quadrupole moment (field-independent basis, Debye-Ang):
   XX=           -104.1826   YY=           -108.7884   ZZ=           -103.5275
   XY=             -0.7275   XZ=             -1.9651   YZ=             -0.7583
 Traceless Quadrupole moment (field-independent basis, Debye-Ang):
   XX=              1.3169   YY=             -3.2889   ZZ=              1.9720
   XY=             -0.7275   XZ=             -1.9651   YZ=             -0.7583
 Octapole moment (field-independent basis, Debye-Ang**2):
  XXX=            -25.8893  YYY=              0.0082  ZZZ=             -2.3839  XYY=             -2.6982
  XXY=             11.6305  XXZ=              1.4278  XZZ=              9.5263  YZZ=             -0.1405
  YYZ=              2.2043  XYZ=              2.0580
 Hexadecapole moment (field-independent basis, Debye-Ang**3):
 XXXX=          -4102.6617 YYYY=          -1336.5129 ZZZZ=           -500.3186 XXXY=             51.3615
 XXXZ=            -18.9303 YYYX=            -11.7157 YYYZ=             -0.6916 ZZZX=              9.7205
 ZZZY=              1.8990 XXYY=           -910.7009 XXZZ=           -794.5400 YYZZ=           -303.7437
 XXYZ=             14.2567 YYXZ=             -5.6841 ZZXY=             -3.4177
 N-N= 1.514399017899D+03 E-N=-4.923905748968D+03  KE= 8.035559412418D+02
 ******************************Gaussian NBO Version 3.1******************************
             N A T U R A L   A T O M I C   O R B I T A L   A N D
          N A T U R A L   B O N D   O R B I T A L   A N A L Y S I S
 ******************************Gaussian NBO Version 3.1******************************
       /RESON  / : Allow strongly delocalized NBO set
       /NLMO   / : Form Natural Localized Molecular Orbitals
       /NMR /    : Analyze NMR Sheilding Tensor 

 Analyzing the SCF density

 Job title: Title Card Required                                             

 Storage needed:     43472 in NPA,     53775 in NBO,    102144 in NLMO ( 104850000 available)
 GSVD:  LWork=      -13908 too small for GESVD, short by       66690 words or       66690 for optimal perf.


 NATURAL POPULATIONS:  Natural atomic orbital occupancies 
                                                          
   NAO  Atom  No  lang   Type(AO)    Occupancy      Energy
 ----------------------------------------------------------
     1    C    1  S      Cor( 1S)     1.99991     -10.98553
     2    C    1  S      Val( 2S)     1.08220      -0.20235
     3    C    1  px     Val( 2p)     0.96232       0.15181
     4    C    1  py     Val( 2p)     0.94528       0.15101
     5    C    1  pz     Val( 2p)     0.93173       0.02782

     6    C    2  S      Cor( 1S)     1.99995     -10.94657
     7    C    2  S      Val( 2S)     1.07944      -0.18528
     8    C    2  px     Val( 2p)     0.97106       0.15218
     9    C    2  py     Val( 2p)     0.97712       0.14774
    10    C    2  pz     Val( 2p)     1.04925       0.00165

    11    C    3  S      Cor( 1S)     1.99994     -10.96456
    12    C    3  S      Val( 2S)     1.07984      -0.18916
    13    C    3  px     Val( 2p)     0.98545       0.13866
    14    C    3  py     Val( 2p)     0.98158       0.14266
    15    C    3  pz     Val( 2p)     0.95949       0.01635

    16    C    4  S      Cor( 1S)     1.99994     -10.94836
    17    C    4  S      Val( 2S)     1.07668      -0.18583
    18    C    4  px     Val( 2p)     0.97181       0.14749
    19    C    4  py     Val( 2p)     0.99157       0.14001
    20    C    4  pz     Val( 2p)     1.05670      -0.00277

    21    C    5  S      Cor( 1S)     1.99978     -11.03600
    22    C    5  S      Val( 2S)     1.05930      -0.21608
    23    C    5  px     Val( 2p)     0.92039       0.12216
    24    C    5  py     Val( 2p)     0.88381       0.16627
    25    C    5  pz     Val( 2p)     0.94566      -0.00282

    26    C    6  S      Cor( 1S)     1.99991     -10.96165
    27    C    6  S      Val( 2S)     1.08652      -0.20916
    28    C    6  px     Val( 2p)     0.97514       0.13220
    29    C    6  py     Val( 2p)     0.97110       0.13993
    30    C    6  pz     Val( 2p)     1.10194      -0.01726

    31    C    7  S      Cor( 1S)     1.99996     -11.05914
    32    C    7  S      Val( 2S)     1.08095      -0.25001
    33    C    7  px     Val( 2p)     0.92962       0.10929
    34    C    7  py     Val( 2p)     0.86019       0.14838
    35    C    7  pz     Val( 2p)     0.88974       0.01242

    36    O    8  S      Cor( 1S)     1.99999     -20.21123
    37    O    8  S      Val( 2S)     1.72738      -1.01958
    38    O    8  px     Val( 2p)     1.16770      -0.06752
    39    O    8  py     Val( 2p)     1.52795      -0.23550
    40    O    8  pz     Val( 2p)     1.83010      -0.35916

    41    C    9  S      Cor( 1S)     1.99987     -11.06144
    42    C    9  S      Val( 2S)     1.08701      -0.24286
    43    C    9  px     Val( 2p)     0.79457       0.10691
    44    C    9  py     Val( 2p)     0.98397       0.05988
    45    C    9  pz     Val( 2p)     0.98435       0.05996

    46    C   10  S      Cor( 1S)     1.99996     -11.01113
    47    C   10  S      Val( 2S)     1.10358      -0.23924
    48    C   10  px     Val( 2p)     0.98748       0.06710
    49    C   10  py     Val( 2p)     0.98545       0.06180
    50    C   10  pz     Val( 2p)     1.01501       0.05879

    51    C   11  S      Cor( 1S)     1.99996     -10.99264
    52    C   11  S      Val( 2S)     1.09340      -0.21459
    53    C   11  px     Val( 2p)     1.01370       0.07150
    54    C   11  py     Val( 2p)     1.01159       0.06888
    55    C   11  pz     Val( 2p)     0.97468       0.08045

    56    C   12  S      Cor( 1S)     1.99993     -11.01592
    57    C   12  S      Val( 2S)     1.07215      -0.20064
    58    C   12  px     Val( 2p)     0.93531       0.09691
    59    C   12  py     Val( 2p)     0.99486       0.07508
    60    C   12  pz     Val( 2p)     0.96007       0.08283

    61    N   13  S      Cor( 1S)     1.99999     -15.24534
    62    N   13  S      Val( 2S)     1.44474      -0.59512
    63    N   13  px     Val( 2p)     1.32693      -0.07033
    64    N   13  py     Val( 2p)     1.46647      -0.12271
    65    N   13  pz     Val( 2p)     1.03731       0.04781

    66    C   14  S      Cor( 1S)     1.99993     -11.02370
    67    C   14  S      Val( 2S)     1.08252      -0.21338
    68    C   14  px     Val( 2p)     0.93423       0.10551
    69    C   14  py     Val( 2p)     0.99514       0.07739
    70    C   14  pz     Val( 2p)     0.89289       0.10441

    71    C   15  S      Cor( 1S)     1.99997     -10.97536
    72    C   15  S      Val( 2S)     1.08427      -0.19114
    73    C   15  px     Val( 2p)     0.99784       0.08240
    74    C   15  py     Val( 2p)     0.99669       0.09177
    75    C   15  pz     Val( 2p)     1.00163       0.09310

    76    C   16  S      Cor( 1S)     1.99998     -10.97646
    77    C   16  S      Val( 2S)     1.07835      -0.18674
    78    C   16  px     Val( 2p)     0.99353       0.09617
    79    C   16  py     Val( 2p)     1.01763       0.09206
    80    C   16  pz     Val( 2p)     0.97520       0.08649

    81    C   17  S      Cor( 1S)     1.99994     -11.00385
    82    C   17  S      Val( 2S)     1.07546      -0.19224
    83    C   17  px     Val( 2p)     0.98060       0.08459
    84    C   17  py     Val( 2p)     0.91482       0.10974
    85    C   17  pz     Val( 2p)     0.99027       0.08715

    86    O   18  S      Cor( 1S)     1.99999     -20.11487
    87    O   18  S      Val( 2S)     1.80395      -1.06434
    88    O   18  px     Val( 2p)     1.81148      -0.31419
    89    O   18  py     Val( 2p)     1.37614      -0.13596
    90    O   18  pz     Val( 2p)     1.25447      -0.13782

    91    C   19  S      Cor( 1S)     1.99997     -10.97749
    92    C   19  S      Val( 2S)     1.07816      -0.18799
    93    C   19  px     Val( 2p)     1.04378       0.06899
    94    C   19  py     Val( 2p)     0.98276       0.08482
    95    C   19  pz     Val( 2p)     1.04142       0.07158

    96    H   20  S      Val( 1S)     0.94736       0.04796

    97    H   21  S      Val( 1S)     0.96766       0.04752

    98    H   22  S      Val( 1S)     0.97962       0.06167

    99    H   23  S      Val( 1S)     0.96770       0.06687

   100    H   24  S      Val( 1S)     0.96056       0.06101

   101    H   25  S      Val( 1S)     0.95564       0.07371

   102    H   26  S      Val( 1S)     0.95476       0.06115

   103    H   27  S      Val( 1S)     0.95581       0.06776

   104    H   28  S      Val( 1S)     0.98506       0.05388

   105    H   29  S      Val( 1S)     0.96355       0.06336

   106    H   30  S      Val( 1S)     0.95218       0.08453

   107    H   31  S      Val( 1S)     0.96496       0.06923

   108    H   32  S      Val( 1S)     0.96256       0.07195

   109    H   33  S      Val( 1S)     0.96330       0.07375

   110    H   34  S      Val( 1S)     0.97876       0.06405

   111    H   35  S      Val( 1S)     0.96869       0.06858

   112    H   36  S      Val( 1S)     0.93978       0.08166

   113    H   37  S      Val( 1S)     0.95539       0.07273

   114    H   38  S      Val( 1S)     0.94295       0.07861


 Summary of Natural Population Analysis:                  
                                                          
                                       Natural Population 
                Natural  -----------------------------------------------
    Atom  No    Charge         Core      Valence    Rydberg      Total
 -----------------------------------------------------------------------
      C    1    0.07855      1.99991     3.92154    0.00000     5.92145
      C    2   -0.07682      1.99995     4.07687    0.00000     6.07682
      C    3   -0.00630      1.99994     4.00637    0.00000     6.00630
      C    4   -0.09669      1.99994     4.09675    0.00000     6.09669
      C    5    0.19107      1.99978     3.80916    0.00000     5.80893
      C    6   -0.13460      1.99991     4.13469    0.00000     6.13460
      C    7    0.23955      1.99996     3.76050    0.00000     5.76045
      O    8   -0.25313      1.99999     6.25313    0.00000     8.25313
      C    9    0.15023      1.99987     3.84990    0.00000     5.84977
      C   10   -0.09149      1.99996     4.09153    0.00000     6.09149
      C   11   -0.09332      1.99996     4.09336    0.00000     6.09332
      C   12    0.03768      1.99993     3.96239    0.00000     5.96232
      N   13   -0.27544      1.99999     5.27544    0.00000     7.27544
      C   14    0.09530      1.99993     3.90477    0.00000     5.90470
      C   15   -0.08040      1.99997     4.08044    0.00000     6.08040
      C   16   -0.06468      1.99998     4.06470    0.00000     6.06468
      C   17    0.03891      1.99994     3.96114    0.00000     5.96109
      O   18   -0.24604      1.99999     6.24605    0.00000     8.24604
      C   19   -0.14610      1.99997     4.14613    0.00000     6.14610
      H   20    0.05264      0.00000     0.94736    0.00000     0.94736
      H   21    0.03234      0.00000     0.96766    0.00000     0.96766
      H   22    0.02038      0.00000     0.97962    0.00000     0.97962
      H   23    0.03230      0.00000     0.96770    0.00000     0.96770
      H   24    0.03944      0.00000     0.96056    0.00000     0.96056
      H   25    0.04436      0.00000     0.95564    0.00000     0.95564
      H   26    0.04524      0.00000     0.95476    0.00000     0.95476
      H   27    0.04419      0.00000     0.95581    0.00000     0.95581
      H   28    0.01494      0.00000     0.98506    0.00000     0.98506
      H   29    0.03645      0.00000     0.96355    0.00000     0.96355
      H   30    0.04782      0.00000     0.95218    0.00000     0.95218
      H   31    0.03504      0.00000     0.96496    0.00000     0.96496
      H   32    0.03744      0.00000     0.96256    0.00000     0.96256
      H   33    0.03670      0.00000     0.96330    0.00000     0.96330
      H   34    0.02124      0.00000     0.97876    0.00000     0.97876
      H   35    0.03131      0.00000     0.96869    0.00000     0.96869
      H   36    0.06022      0.00000     0.93978    0.00000     0.93978
      H   37    0.04461      0.00000     0.95539    0.00000     0.95539
      H   38    0.05705      0.00000     0.94295    0.00000     0.94295
 =======================================================================
   * Total *   -0.00000     37.99887   100.00113    0.00000   138.00000

                                 Natural Population      
 --------------------------------------------------------
   Core                      37.99887 ( 99.9970% of  38)
   Valence                  100.00113 (100.0011% of 100)
   Natural Minimal Basis    138.00000 (100.0000% of 138)
   Natural Rydberg Basis      0.00000 (  0.0000% of 138)
 --------------------------------------------------------

    Atom  No          Natural Electron Configuration
 ----------------------------------------------------------------------------
      C    1      [core]2S( 1.08)2p( 2.84)
      C    2      [core]2S( 1.08)2p( 3.00)
      C    3      [core]2S( 1.08)2p( 2.93)
      C    4      [core]2S( 1.08)2p( 3.02)
      C    5      [core]2S( 1.06)2p( 2.75)
      C    6      [core]2S( 1.09)2p( 3.05)
      C    7      [core]2S( 1.08)2p( 2.68)
      O    8      [core]2S( 1.73)2p( 4.53)
      C    9      [core]2S( 1.09)2p( 2.76)
      C   10      [core]2S( 1.10)2p( 2.99)
      C   11      [core]2S( 1.09)2p( 3.00)
      C   12      [core]2S( 1.07)2p( 2.89)
      N   13      [core]2S( 1.44)2p( 3.83)
      C   14      [core]2S( 1.08)2p( 2.82)
      C   15      [core]2S( 1.08)2p( 3.00)
      C   16      [core]2S( 1.08)2p( 2.99)
      C   17      [core]2S( 1.08)2p( 2.89)
      O   18      [core]2S( 1.80)2p( 4.44)
      C   19      [core]2S( 1.08)2p( 3.07)
      H   20            1S( 0.95)
      H   21            1S( 0.97)
      H   22            1S( 0.98)
      H   23            1S( 0.97)
      H   24            1S( 0.96)
      H   25            1S( 0.96)
      H   26            1S( 0.95)
      H   27            1S( 0.96)
      H   28            1S( 0.99)
      H   29            1S( 0.96)
      H   30            1S( 0.95)
      H   31            1S( 0.96)
      H   32            1S( 0.96)
      H   33            1S( 0.96)
      H   34            1S( 0.98)
      H   35            1S( 0.97)
      H   36            1S( 0.94)
      H   37            1S( 0.96)
      H   38            1S( 0.94)


 NATURAL BOND ORBITAL ANALYSIS:

                       Occupancies       Lewis Structure    Low   High
           Occ.    -------------------  -----------------   occ   occ
  Cycle   Thresh.   Lewis   Non-Lewis     CR  BD  3C  LP    (L)   (NL)   Dev
 =============================================================================
   1(1)    1.90   134.44593   3.55407     19  43   0   7     3      3    0.45
   2(2)    1.90   134.44593   3.55407     19  43   0   7     3      3    0.45
   3(1)    1.80   134.35065   3.64935     19  42   0   8     3      3    0.45
   4(2)    1.80   134.35065   3.64935     19  42   0   8     3      3    0.45
   5(1)    1.70   134.35065   3.64935     19  42   0   8     3      3    0.45
   6(2)    1.70   134.35065   3.64935     19  42   0   8     3      3    0.45
   7(1)    1.60   135.51692   2.48308     19  44   0   6     1      3    0.43
   8(2)    1.60   136.12860   1.87140     19  45   0   5     0      3    0.42
   9(3)    1.60   136.07594   1.92406     19  45   0   5     0      3    0.45
  10(4)    1.60   136.12860   1.87140     19  45   0   5     0      3    0.42
  11(1)    1.50   136.12860   1.87140     19  45   0   5     0      3    0.42
  12(2)    1.50   136.07594   1.92406     19  45   0   5     0      3    0.45
  13(3)    1.50   136.12860   1.87140     19  45   0   5     0      3    0.42
  14(1)    1.60   136.12860   1.87140     19  45   0   5     0      3    0.42
 -----------------------------------------------------------------------------

 Structure accepted: RESONANCE keyword permits strongly delocalized structure

 --------------------------------------------------------
   Core                     37.99886 ( 99.997% of  38)
   Valence Lewis            98.12974 ( 98.130% of 100)
  ==================       ============================
   Total Lewis             136.12860 ( 98.644% of 138)
  -----------------------------------------------------
   Valence non-Lewis         1.87140 (  1.356% of 138)
   Rydberg non-Lewis         0.00000 (  0.000% of 138)
  ==================       ============================
   Total non-Lewis           1.87140 (  1.356% of 138)
 --------------------------------------------------------


       (Occupancy)   Bond orbital/ Coefficients/ Hybrids
 ---------------------------------------------------------------------------------
     1. (1.98526) BD ( 1) C   1 - C   2  
                ( 50.03%)   0.7073* C   1 s( 33.76%)p 1.96( 66.24%)
                                            0.0000  0.5810 -0.7781 -0.2215  0.0893
                ( 49.97%)   0.7069* C   2 s( 34.46%)p 1.90( 65.54%)
                                            0.0001  0.5870  0.7726  0.2275 -0.0826
     2. (1.66163) BD ( 2) C   1 - C   2  
                ( 45.42%)   0.6739* C   1 s(  0.00%)p 1.00(100.00%)
                                           -0.0000 -0.0006  0.1623 -0.1806  0.9701
                ( 54.58%)   0.7388* C   2 s(  0.00%)p 1.00(100.00%)
                                            0.0000  0.0002  0.1588 -0.1879  0.9693
     3. (1.98072) BD ( 1) C   1 - C   6  
                ( 49.44%)   0.7031* C   1 s( 34.63%)p 1.89( 65.37%)
                                            0.0001  0.5885  0.5703 -0.5388 -0.1953
                ( 50.56%)   0.7111* C   6 s( 35.62%)p 1.81( 64.38%)
                                           -0.0000  0.5968 -0.5289  0.5700  0.1979
     4. (1.98731) BD ( 1) C   1 - C  19  
                ( 50.13%)   0.7080* C   1 s( 31.62%)p 2.16( 68.38%)
                                           -0.0000  0.5623  0.2073  0.7925  0.1132
                ( 49.87%)   0.7062* C  19 s( 25.58%)p 2.91( 74.42%)
                                            0.0001  0.5058 -0.1926 -0.8319 -0.1227
     5. (1.98982) BD ( 1) C   2 - C   3  
                ( 49.55%)   0.7039* C   2 s( 34.19%)p 1.92( 65.81%)
                                            0.0001  0.5847 -0.2295 -0.7700 -0.1118
                ( 50.45%)   0.7103* C   3 s( 34.32%)p 1.91( 65.68%)
                                            0.0000  0.5858  0.2147  0.7724  0.1187
     6. (1.98876) BD ( 1) C   2 - H  23  
                ( 51.64%)   0.7186* C   2 s( 31.35%)p 2.19( 68.65%)
                                           -0.0001  0.5599 -0.5703  0.5657  0.2030
                ( 48.36%)   0.6954* H  23 s(100.00%)
                                            1.0000
[...]
                         Standard Origin              Atomic Origin
 NLMO      Total    Paramagnetic  Diamagnetic   Paramagnetic  Diamagnetic
    3      -0.4498       -0.6254       0.1756        -1.1279       0.6781
    4       0.1238       -1.0112       1.1350        -0.8644       0.9882
    8       0.4104       -0.2707       0.6811        -0.6302       1.0405
   13       0.8344       -0.3581       1.1925        -0.6370       1.4714
   15      -9.3330       -9.6183       0.2854       -10.1087       0.7757
   16     -10.0808      -10.5121       0.4312       -10.7923       0.7115
   17    -117.1519     -127.1995      10.0477      -126.5987       9.4469
   18     -24.1447      -49.1921      25.0474       -49.3157      25.1710
   20      -1.0771       -1.2739       0.1968        -1.2023       0.1252
   23      -0.3216       -0.5275       0.2058        -1.1264       0.8047
   36      -0.5148       -1.4180       0.9032        -0.8223       0.3075
   43      -0.3321       -1.5514       1.2193        -1.3085       0.9765
   45      -0.3940       -1.7335       1.3394        -1.3612       0.9671
   63     271.9316       -0.0052     271.9368        -0.0052     271.9368
   68     -33.2210      -68.2614      35.0404       -68.2121      34.9911
   69    -411.7230     -449.3023      37.5794      -451.3045      39.5815
 Sum     -335.4436     -722.8606     387.4170      -725.4174     389.9738

 Contributions to Isotropic shielding for atom   19 (   218.0751 ppm):
                         Standard Origin              Atomic Origin
 NLMO      Total    Paramagnetic  Diamagnetic   Paramagnetic  Diamagnetic
    1      -1.8615       -1.3842      -0.4773        -2.3607       0.4992
    2      -0.7866       -0.8597       0.0731        -2.4431       1.6565
    3      -0.9926       -1.4755       0.4829        -1.2953       0.3028
    4       3.3500      -10.2104      13.5604        -3.6154       6.9654
    6      -0.6926       -1.6974       1.0048        -1.7296       1.0371
    8       0.8197       -0.3918       1.2115        -0.3667       1.1864
   15      -0.2979       -0.0373      -0.2606        -1.1517       0.8539
   17      -0.4008       -0.2907      -0.1101        -1.1157       0.7149
   18       0.2488        0.1851       0.0638        -1.2169       1.4657
   43       7.1899       -6.0910      13.2809        -4.2439      11.4338
   44       4.1297        4.3322      -0.2025        -7.0580      11.1877
   45       7.1148       -4.3645      11.4793        -4.3121      11.4269
   64     200.0781       -0.0028     200.0809         0.0029     200.0752
 Sum      217.8992      -22.2881     240.1873       -30.9063     248.8055

 Contributions to Isotropic shielding for atom   20 (    31.3743 ppm):
                         Standard Origin              Atomic Origin
 NLMO      Total    Paramagnetic  Diamagnetic   Paramagnetic  Diamagnetic
   13       0.0401       -0.4601       0.5001        -1.2564       1.2965
   16       2.0287        1.4096       0.6190         1.1573       0.8714
   19       0.0564       -0.3151       0.3715        -0.9470       1.0034
   20       1.3174        1.1388       0.1787         0.6624       0.6551
   23       1.1362        1.5205      -0.3843         0.1693       0.9669
   24      25.7429        0.0739      25.6690         0.3883      25.3545
 Sum       30.3216        3.3677      26.9539         0.1738      30.1478

 Contributions to Isotropic shielding for atom   21 (    29.9960 ppm):
                         Standard Origin              Atomic Origin
 NLMO      Total    Paramagnetic  Diamagnetic   Paramagnetic  Diamagnetic
   13       0.1747       -0.3245       0.4992        -0.8606       1.0353
   19       0.8089        1.5476      -0.7387        -1.3172       2.1261
   20       0.8358        0.4540       0.3818        -0.2539       1.0897
   21       0.5155        1.0903      -0.5749        -0.7381       1.2536
   22      26.2267        0.0722      26.1546         0.8605      25.3662
   27      -0.1318       -0.8238       0.6920        -1.3399       1.2080
 Sum       28.4299        2.0158      26.4140        -3.6491      32.0789

 Contributions to Isotropic shielding for atom   22 (    31.1057 ppm):
                         Standard Origin              Atomic Origin
 NLMO      Total    Paramagnetic  Diamagnetic   Paramagnetic  Diamagnetic
   23       1.2026        0.3408       0.8618         0.0721       1.1305
   31       0.9004        1.3784      -0.4780        -0.6614       1.5618
   33       0.3739        1.8809      -1.5070        -0.7817       1.1556
   34      26.4691       -0.2808      26.7499         0.6285      25.8406
   37       0.0118       -0.9412       0.9530        -1.0686       1.0804
   38       0.1188       -0.9130       1.0318        -0.7378       0.8566
 Sum       29.0766        1.4651      27.6115        -2.5490      31.6255

 Contributions to Isotropic shielding for atom   23 (    25.9530 ppm):
                         Standard Origin              Atomic Origin
 NLMO      Total    Paramagnetic  Diamagnetic   Paramagnetic  Diamagnetic
    1      -1.3234       -2.8279       1.5045        -1.8919       0.5686
    2       1.0232        1.3866      -0.3634        -2.3411       3.3643
    4      -0.6890        0.7099      -1.3988        -1.7746       1.0857
    5      -2.0090       -1.1547      -0.8543        -2.7056       0.6966
    6      26.9975        0.9550      26.0424         1.5167      25.4807
    9      -0.0740       -0.3328       0.2588        -1.1787       1.1047
   13       0.5031        0.8165      -0.3133        -0.7469       1.2501
   44      -0.1471       -1.1163       0.9692        -0.9259       0.7789
 Sum       24.2814       -1.5636      25.8451       -10.0480      34.3295

 Contributions to Isotropic shielding for atom   24 (    25.2898 ppm):
                         Standard Origin              Atomic Origin
 NLMO      Total    Paramagnetic  Diamagnetic   Paramagnetic  Diamagnetic
    2       1.3433        0.9003       0.4431         0.2849       1.0584
    5      -2.0106       -2.0976       0.0870        -2.7438       0.7333
    6      -0.1104        0.2004      -0.3108        -1.2406       1.1302
    7      -1.9525       -2.5653       0.6128        -2.6693       0.7167
    8       0.3454        1.3382      -0.9928        -2.4764       2.8218
    9      26.8891        1.1040      25.7851         1.6060      25.2831
   11      -0.1120        0.5481      -0.6601        -1.2228       1.1108
   13       0.5165        0.7223      -0.2058        -0.8554       1.3719
 Sum       24.9089        0.1505      24.7584        -9.3173      34.2261

 Contributions to Isotropic shielding for atom   25 (    25.7071 ppm):
                         Standard Origin              Atomic Origin
 NLMO      Total    Paramagnetic  Diamagnetic   Paramagnetic  Diamagnetic
    2       1.2097       -0.3284       1.5381        -0.0201       1.2298
    7      -1.8270       -0.9996      -0.8274        -2.5176       0.6906
    8       0.1573        0.3579      -0.2006        -3.2514       3.4086
    9      -0.0559       -0.8241       0.7682        -1.1529       1.0969
   10      -0.9778       -2.4771       1.4992        -1.5350       0.5572
   11      26.5430        1.0559      25.4871         1.3319      25.2111
   14      -0.5087        0.5035      -1.0122        -2.1442       1.6356
   65      -0.2221       -0.4932       0.2710         0.7886      -1.0107
 Sum       24.3184       -3.2050      27.5234        -8.5008      32.8192

 Contributions to Isotropic shielding for atom   26 (    32.6101 ppm):
                         Standard Origin              Atomic Origin
 NLMO      Total    Paramagnetic  Diamagnetic   Paramagnetic  Diamagnetic
   13      -0.1303       -0.4240       0.2938        -1.1902       1.0600
   19      -0.1624       -0.2029       0.0406        -1.5053       1.3429
   21       1.4476        0.0907       1.3569         0.6118       0.8358
   25       1.2574        0.5286       0.7288         0.2489       1.0085
   26      25.9973        0.2049      25.7924         0.4312      25.5661
   27       1.9659        2.1302      -0.1643         0.1362       1.8298
   29       0.1259       -0.4103       0.5362        -0.9348       1.0607
 Sum       30.5014        1.9172      28.5842        -2.2023      32.7037

 Contributions to Isotropic shielding for atom   27 (    31.4675 ppm):
                         Standard Origin              Atomic Origin
 NLMO      Total    Paramagnetic  Diamagnetic   Paramagnetic  Diamagnetic
   21       1.1637        0.9817       0.1820         0.1898       0.9739
   22      -0.2295       -0.1689      -0.0606        -1.4268       1.1974
   25       0.9605        1.6376      -0.6772        -0.0985       1.0590
   26       2.0519        1.7668       0.2851         0.1431       1.9088
   27      26.0607       -0.2772      26.3379         0.4822      25.5785
   30       0.0427       -0.1546       0.1973        -1.0147       1.0574
 Sum       30.0500        3.7854      26.2645        -1.7248      31.7748

 Contributions to Isotropic shielding for atom   28 (    33.7984 ppm):
                         Standard Origin              Atomic Origin
 NLMO      Total    Paramagnetic  Diamagnetic   Paramagnetic  Diamagnetic
   13      -0.0758       -0.3889       0.3131        -1.0396       0.9638
   18      -0.4555       -0.3584      -0.0971        -1.4369       0.9814
   25       1.2587       -0.6910       1.9496         0.2507       1.0080
   26       0.0407       -0.5633       0.6040        -1.0174       1.0581
   28       1.1151       -0.0140       1.1291         0.3953       0.7198
   29      26.5037        0.5260      25.9776         0.5163      25.9874
   30       1.7593        1.1617       0.5976        -0.1101       1.8694
   41      -0.0133       -1.0886       1.0753        -0.8272       0.8138
 Sum       30.1329       -1.4165      31.5494        -3.2689      33.4017

 Contributions to Isotropic shielding for atom   29 (    31.9654 ppm):
                         Standard Origin              Atomic Origin
 NLMO      Total    Paramagnetic  Diamagnetic   Paramagnetic  Diamagnetic
   25       0.7774        1.0984      -0.3210        -0.3059       1.0833
   27       0.1322        0.0780       0.0542        -0.9822       1.1143
   28       0.5784        1.5219      -0.9435        -0.7378       1.3162
   29       1.9237        0.5981       1.3256         0.2133       1.7104
   30      26.2522        0.1178      26.1344         0.6910      25.5613
 Sum       29.6639        3.4142      26.2497        -1.1216      30.7855

 Contributions to Isotropic shielding for atom   30 (    31.3090 ppm):
                         Standard Origin              Atomic Origin
 NLMO      Total    Paramagnetic  Diamagnetic   Paramagnetic  Diamagnetic
   16      -0.1890        0.0805      -0.2694        -1.1723       0.9833
   17      -0.4482       -0.3968      -0.0514        -1.0818       0.6336
   18       0.1420       -0.0761       0.2181        -1.2365       1.3785
   23      -0.2026       -0.1640      -0.0386        -1.0988       0.8963
   33       1.7863       -1.3735       3.1598         1.2338       0.5524
   36      25.8954        0.3281      25.5673         0.4054      25.4900
   37       1.9252        1.4393       0.4859         0.0859       1.8393
   38       0.2842       -1.1435       1.4276        -0.3130       0.5971
   39       0.0818       -1.2571       1.3389        -0.9447       1.0265
   68      -0.1276       -0.0272      -0.1004         0.9015      -1.0291
 Sum       29.1475       -2.5903      31.7378        -3.2204      32.3679

 Contributions to Isotropic shielding for atom   31 (    31.9179 ppm):
                         Standard Origin              Atomic Origin
 NLMO      Total    Paramagnetic  Diamagnetic   Paramagnetic  Diamagnetic
   33       1.5733        0.1036       1.4697         0.8948       0.6785
   34      -0.1004        0.3678      -0.4681        -1.2064       1.1060
   35       0.4672        2.6315      -2.1643        -0.3847       0.8520
   36       2.1286        0.9382       1.1904         0.3027       1.8259
   37      26.3410       -0.0992      26.4401         0.5073      25.8337
   38       0.2273       -0.7910       1.0183         0.1010       0.1263
   40       0.1189       -0.7986       0.9175        -0.9829       1.1019
 Sum       30.7560        2.3524      28.4036        -0.7682      31.5242

 Contributions to Isotropic shielding for atom   32 (    32.1054 ppm):
                         Standard Origin              Atomic Origin
 NLMO      Total    Paramagnetic  Diamagnetic   Paramagnetic  Diamagnetic
   31      -0.1675        0.2634      -0.4309        -1.1148       0.9473
   35       1.2557       -0.3392       1.5949         0.4835       0.7722
   36       0.0145        0.6418      -0.6273        -1.0943       1.1087
   38       1.1321        0.1617       0.9704         0.4358       0.6963
   39      26.2900        0.1001      26.1900         0.5051      25.7850
   40       1.8160        3.1054      -1.2894         0.0625       1.7535
   41       0.0316        0.3002      -0.2686        -1.0275       1.0591
 Sum       30.3723        4.2333      26.1391        -1.7497      32.1220

 Contributions to Isotropic shielding for atom   33 (    31.7976 ppm):
                         Standard Origin              Atomic Origin
 NLMO      Total    Paramagnetic  Diamagnetic   Paramagnetic  Diamagnetic
   31      -0.1949        0.3990      -0.5939        -1.2581       1.0632
   35       1.1975       -0.1652       1.3627         0.4291       0.7684
   37       0.0358        0.6835      -0.6477        -0.9818       1.0176
   38       1.1215        0.2625       0.8590         0.4174       0.7041
   39       1.8352        3.0066      -1.1714         0.0490       1.7862
   40      26.3017       -0.0703      26.3720         0.5297      25.7720
   42       0.0521        0.4678      -0.4157        -0.9787       1.0308
 Sum       30.3489        4.5838      25.7651        -1.7934      32.1423

 Contributions to Isotropic shielding for atom   34 (    32.4800 ppm):
                         Standard Origin              Atomic Origin
 NLMO      Total    Paramagnetic  Diamagnetic   Paramagnetic  Diamagnetic
   28      -0.2375        0.1161      -0.3536        -1.1881       0.9506
   29      -0.1937        0.1970      -0.3907        -1.0166       0.8229
   32       1.8551       -1.7335       3.5886         1.3045       0.5506
   33      -0.1435       -0.0750      -0.0685        -1.0179       0.8744
   35       0.2610       -1.0727       1.3337        -0.4732       0.7342
   39       0.1600       -0.8908       1.0508        -0.8102       0.9702
   41      26.4709        0.6877      25.7832         0.6673      25.8036
   42       1.6798        1.5090       0.1708        -0.1562       1.8360
 Sum       29.8521       -1.2621      31.1142        -2.6904      32.5425

 Contributions to Isotropic shielding for atom   35 (    31.6767 ppm):
                         Standard Origin              Atomic Origin
 NLMO      Total    Paramagnetic  Diamagnetic   Paramagnetic  Diamagnetic
   32       1.1167        0.4393       0.6774        -0.0216       1.1383
   33      -0.1172        0.0649      -0.1821        -1.0042       0.8869
   38       0.1386        2.2575      -2.1190        -0.7320       0.8706
   40       0.1369       -0.3074       0.4443        -0.9168       1.0537
   41       1.7614        0.6763       1.0851         0.0623       1.6991
   42      26.4180        0.2241      26.1939         0.7800      25.6381
 Sum       29.4545        3.3547      26.0997        -1.8323      31.2867

 Contributions to Isotropic shielding for atom   36 (    30.8266 ppm):
                         Standard Origin              Atomic Origin
 NLMO      Total    Paramagnetic  Diamagnetic   Paramagnetic  Diamagnetic
    2      -0.7194       -0.6309      -0.0885        -1.6462       0.9268
    4       1.8316       -0.6454       2.4771         0.9523       0.8794
    8       0.5525       -0.2982       0.8507        -0.5247       1.0772
   15      -0.2155        0.0354      -0.2508        -1.1113       0.8958
   18       0.1775        0.0405       0.1370        -1.1303       1.3078
   43      25.6681        0.2684      25.3996         0.3309      25.3372
   44       1.8202        2.1396      -0.3193        -0.0546       1.8748
   45       2.2193        0.2861       1.9332         0.4194       1.7999
 Sum       31.3344        1.1954      30.1391        -2.7645      34.0990

 Contributions to Isotropic shielding for atom   37 (    31.0275 ppm):
                         Standard Origin              Atomic Origin
 NLMO      Total    Paramagnetic  Diamagnetic   Paramagnetic  Diamagnetic
    1      -0.9504        0.0197      -0.9701        -1.8676       0.9172
    2      -0.6182       -0.0611      -0.5572        -2.2338       1.6156
    4       1.0195        0.9981       0.0214         0.2583       0.7612
    6      -0.0169       -1.5364       1.5195        -0.9525       0.9355
   18       0.0681        0.0697      -0.0016        -0.9321       1.0002
   43       2.1362        1.8909       0.2454         0.1681       1.9681
   44      26.2493       -0.1205      26.3697         0.5162      25.7331
   45       2.0499        2.1590      -0.1091         0.0647       1.9853
 Sum       29.9375        3.4195      26.5179        -4.9787      34.9162

 Contributions to Isotropic shielding for atom   38 (    31.3305 ppm):
                         Standard Origin              Atomic Origin
 NLMO      Total    Paramagnetic  Diamagnetic   Paramagnetic  Diamagnetic
    2      -0.7369       -0.5006      -0.2363        -1.6256       0.8887
    4       1.7758       -0.3701       2.1459         0.9067       0.8691
    8       0.5883       -0.2281       0.8164        -0.5091       1.0974
   15      -0.2150        0.1181      -0.3331        -1.1260       0.9111
   18       0.0346        0.2264      -0.1918        -1.2438       1.2784
   43       2.2469        0.1728       2.0741         0.4264       1.8205
   44       1.8182        2.3674      -0.5492        -0.0694       1.8876
   45      25.7506        0.2272      25.5234         0.3434      25.4073
 Sum       31.2626        2.0131      29.2495        -2.8974      34.1600
 
 1\1\GINC-GNOSIE-MM\SP\RHF\STO-3G\C16H19N1O2\MBENIDD\18-May-2026\0\\# n
 mr=giao hf/sto-3g pop=nbo\\Title Card Required\\0,1\C,0,0.,0.,0.\C,0,1
 .4072,0.,0.\C,0,2.1249,1.1937,0.\C,0,1.4454,2.4062,0.0097\C,0,0.0493,2
 .4305,0.0277\C,0,-0.6809,1.2369,0.0109\C,0,-2.1596,1.3392,-0.0164\O,0,
 -0.4933,3.6848,0.0507\C,0,-1.8732,3.753,0.4113\C,0,-2.7366,2.7153,-0.2
 975\C,0,-2.0588,3.7978,1.9396\C,0,-3.2043,2.9141,2.4407\N,0,-4.4034,3.
 0336,1.6168\C,0,-4.1812,2.9628,0.1587\C,0,-5.2741,2.0599,-0.4161\C,0,-
 6.2854,1.9687,0.7137\C,0,-5.4112,2.0202,1.9529\O,0,-2.8563,0.3428,0.14
 34\C,0,-0.7035,-1.3307,-0.0187\H,0,-2.6702,2.8508,-1.3856\H,0,-2.1922,
 4.7363,0.0377\H,0,-4.4324,3.9739,-0.197\H,0,1.9568,-0.9401,-0.007\H,0,
 3.2118,1.1774,-0.0065\H,0,2.0038,3.3393,0.0129\H,0,-1.1336,3.5219,2.45
 95\H,0,-2.2617,4.8376,2.2294\H,0,-2.8545,1.8757,2.4879\H,0,-3.4427,3.2
 004,3.4722\H,0,-4.9178,1.0594,-0.67\H,0,-5.7256,2.4857,-1.3184\H,0,-6.
 8846,1.0551,0.6605\H,0,-6.965,2.8292,0.6849\H,0,-4.9589,1.0346,2.1206\
 H,0,-5.9839,2.2995,2.8424\H,0,-1.2801,-1.4724,0.9006\H,0,0.0098,-2.160
 3,-0.0805\H,0,-1.3558,-1.4095,-0.894\\Version=EM64L-G16RevB.01\State=1
 -A\HF=-811.0493366\RMSD=5.622e-09\Dipole=0.1526344,-0.1140079,-0.06030
 21\Quadrupole=0.7614361,-1.8532761,1.09184,-1.6925638,1.2799869,-0.426
 7377\PG=C01 [X(C16H19N1O2)]\\@


 IF GOD HAD MEANT MAN TO SEE THE SUN RISE, HE
 WOULD HAVE SCHEDULED IT FOR A LATER HOUR.
 Job cpu time:       0 days  0 hours  3 minutes 54.5 seconds.
 Elapsed time:       0 days  0 hours  2 minutes 40.6 seconds.
 File lengths (MBytes):  RWF=     14 Int=      0 D2E=      0 Chk=      2 Scr=      1
 Normal termination of Gaussian 16 at Mon May 18 11:49:22 2026.
