 Entering Gaussian System, Link 0=g16
 Input=3_elaeocarpine_c_4.gjf
 Output=3_elaeocarpine_c_4.log
 Initial command:
 /opt/gaussian/g16/l1.exe "/home/mbenidd/Bureau/Elaeocarpines/HF_NMR/3/3_elaeocarpine_c4/Gau-10057.inp" -scrdir="/home/mbenidd/Bureau/Elaeocarpines/HF_NMR/3/3_elaeocarpine_c4/"
 Entering Link 1 = /opt/gaussian/g16/l1.exe PID=     10059.
  
 Copyright (c) 1988-2017, Gaussian, Inc.  All Rights Reserved.
  
 This is part of the Gaussian(R) 16 program.  It is based on
 the Gaussian(R) 09 system (copyright 2009, Gaussian, Inc.),
 the Gaussian(R) 03 system (copyright 2003, Gaussian, Inc.),
 the Gaussian(R) 98 system (copyright 1998, Gaussian, Inc.),
 the Gaussian(R) 94 system (copyright 1995, Gaussian, Inc.),
 the Gaussian 92(TM) system (copyright 1992, Gaussian, Inc.),
 the Gaussian 90(TM) system (copyright 1990, Gaussian, Inc.),
 the Gaussian 88(TM) system (copyright 1988, Gaussian, Inc.),
 the Gaussian 86(TM) system (copyright 1986, Carnegie Mellon
 University), and the Gaussian 82(TM) system (copyright 1983,
 Carnegie Mellon University). Gaussian is a federally registered
 trademark of Gaussian, Inc.
  
 This software contains proprietary and confidential information,
 including trade secrets, belonging to Gaussian, Inc.
  
 This software is provided under written license and may be
 used, copied, transmitted, or stored only in accord with that
 written license.
  
 The following legend is applicable only to US Government
 contracts under FAR:
  
                    RESTRICTED RIGHTS LEGEND
  
 Use, reproduction and disclosure by the US Government is
 subject to restrictions as set forth in subparagraphs (a)
 and (c) of the Commercial Computer Software - Restricted
 Rights clause in FAR 52.227-19.
  
 Gaussian, Inc.
 340 Quinnipiac St., Bldg. 40, Wallingford CT 06492
  
  
 ---------------------------------------------------------------
 Warning -- This program may not be used in any manner that
 competes with the business of Gaussian, Inc. or will provide
 assistance to any competitor of Gaussian, Inc.  The licensee
 of this program is prohibited from giving any competitor of
 Gaussian, Inc. access to this program.  By using this program,
 the user acknowledges that Gaussian, Inc. is engaged in the
 business of creating and licensing software in the field of
 computational chemistry and represents and warrants to the
 licensee that it is not a competitor of Gaussian, Inc. and that
 it will not use this program in any manner prohibited above.
 ---------------------------------------------------------------
  

 Cite this work as:
 Gaussian 16, Revision B.01,
 M. J. Frisch, G. W. Trucks, H. B. Schlegel, G. E. Scuseria, 
 M. A. Robb, J. R. Cheeseman, G. Scalmani, V. Barone, 
 G. A. Petersson, H. Nakatsuji, X. Li, M. Caricato, A. V. Marenich, 
 J. Bloino, B. G. Janesko, R. Gomperts, B. Mennucci, H. P. Hratchian, 
 J. V. Ortiz, A. F. Izmaylov, J. L. Sonnenberg, D. Williams-Young, 
 F. Ding, F. Lipparini, F. Egidi, J. Goings, B. Peng, A. Petrone, 
 T. Henderson, D. Ranasinghe, V. G. Zakrzewski, J. Gao, N. Rega, 
 G. Zheng, W. Liang, M. Hada, M. Ehara, K. Toyota, R. Fukuda, 
 J. Hasegawa, M. Ishida, T. Nakajima, Y. Honda, O. Kitao, H. Nakai, 
 T. Vreven, K. Throssell, J. A. Montgomery, Jr., J. E. Peralta, 
 F. Ogliaro, M. J. Bearpark, J. J. Heyd, E. N. Brothers, K. N. Kudin, 
 V. N. Staroverov, T. A. Keith, R. Kobayashi, J. Normand, 
 K. Raghavachari, A. P. Rendell, J. C. Burant, S. S. Iyengar, 
 J. Tomasi, M. Cossi, J. M. Millam, M. Klene, C. Adamo, R. Cammi, 
 J. W. Ochterski, R. L. Martin, K. Morokuma, O. Farkas, 
 J. B. Foresman, and D. J. Fox, Gaussian, Inc., Wallingford CT, 2016.
 
 ******************************************
 Gaussian 16:  EM64L-G16RevB.01 20-Dec-2017
                18-May-2026 
 ******************************************
 %nprocshared=4
 Will use up to    4 processors via shared memory.
 ----------------------------
 # nmr=giao hf/sto-3g pop=nbo
 ----------------------------
 1/38=1,172=1/1;
 2/12=2,17=6,18=5,40=1/2;
 3/6=3,11=9,25=1,30=1/1,2,3,8;
 4//1;
 5/5=2,38=5/2;
 8/6=1,10=90,11=11/1;
 10/13=100,45=16/2;
 6/7=2,8=2,9=2,10=2,28=1,40=1,64=1/1,7;
 99/9=1/99;
 -------------------
 Title Card Required
 -------------------
 Symbolic Z-matrix:
 Charge =  0 Multiplicity = 1
 C                     0.        0.        0. 
 C                     1.4071    0.        0. 
 C                     2.1261    1.1946    0. 
 C                     1.4488    2.4087   -0.0096 
 C                     0.0546    2.4279   -0.0279 
 C                    -0.6771    1.2363    0.002 
 C                    -2.1489    1.3478    0.0884 
 O                    -0.5166    3.6701   -0.0243 
 C                    -1.7743    3.7072   -0.7073 
 C                    -2.7761    2.6986   -0.1621 
 C                    -2.2853    5.1532   -0.6201 
 C                    -3.7801    5.2354   -0.3199 
 N                    -4.1539    4.5373    0.9087 
 C                    -3.5441    3.1955    1.067 
 C                    -2.7588    3.259     2.3776 
 C                    -3.5318    4.286     3.1794 
 C                    -3.8806    5.318     2.1244 
 O                    -2.8487    0.377     0.3697 
 C                    -0.7094   -1.3269    0.0169 
 H                    -3.5135    2.5307   -0.9622 
 H                    -1.5778    3.4815   -1.766 
 H                    -4.3822    2.5038    1.2345 
 H                     1.9559   -0.9406    0.0084 
 H                     3.2131    1.1766    0.0089 
 H                     2.0058    3.3421   -0.008 
 H                    -1.7191    5.7177    0.1314 
 H                    -2.0864    5.6581   -1.5739 
 H                    -4.3406    4.7984   -1.1561 
 H                    -4.0976    6.2846   -0.2752 
 H                    -1.7339    3.6134    2.2294 
 H                    -2.7188    2.2923    2.8888 
 H                    -4.4407    3.8384    3.5994 
 H                    -2.9409    4.7057    3.9985 
 H                    -3.0294    5.9974    1.9964 
 H                    -4.7505    5.9152    2.4148 
 H                    -1.4372   -1.3863   -0.7984 
 H                    -0.0083   -2.1564   -0.128 
 H                    -1.2051   -1.4834    0.9799 
 
                          Input orientation:                          
 ---------------------------------------------------------------------
 Center     Atomic      Atomic             Coordinates (Angstroms)
 Number     Number       Type             X           Y           Z
 ---------------------------------------------------------------------
      1          6           0        0.000000    0.000000    0.000000
      2          6           0        1.407100    0.000000    0.000000
      3          6           0        2.126100    1.194600    0.000000
      4          6           0        1.448800    2.408700   -0.009600
      5          6           0        0.054600    2.427900   -0.027900
      6          6           0       -0.677100    1.236300    0.002000
      7          6           0       -2.148900    1.347800    0.088400
      8          8           0       -0.516600    3.670100   -0.024300
      9          6           0       -1.774300    3.707200   -0.707300
     10          6           0       -2.776100    2.698600   -0.162100
     11          6           0       -2.285300    5.153200   -0.620100
     12          6           0       -3.780100    5.235400   -0.319900
     13          7           0       -4.153900    4.537300    0.908700
     14          6           0       -3.544100    3.195500    1.067000
     15          6           0       -2.758800    3.259000    2.377600
     16          6           0       -3.531800    4.286000    3.179400
     17          6           0       -3.880600    5.318000    2.124400
     18          8           0       -2.848700    0.377000    0.369700
     19          6           0       -0.709400   -1.326900    0.016900
     20          1           0       -3.513500    2.530700   -0.962200
     21          1           0       -1.577800    3.481500   -1.766000
     22          1           0       -4.382200    2.503800    1.234500
     23          1           0        1.955900   -0.940600    0.008400
     24          1           0        3.213100    1.176600    0.008900
     25          1           0        2.005800    3.342100   -0.008000
     26          1           0       -1.719100    5.717700    0.131400
     27          1           0       -2.086400    5.658100   -1.573900
     28          1           0       -4.340600    4.798400   -1.156100
     29          1           0       -4.097600    6.284600   -0.275200
     30          1           0       -1.733900    3.613400    2.229400
     31          1           0       -2.718800    2.292300    2.888800
     32          1           0       -4.440700    3.838400    3.599400
     33          1           0       -2.940900    4.705700    3.998500
     34          1           0       -3.029400    5.997400    1.996400
     35          1           0       -4.750500    5.915200    2.414800
     36          1           0       -1.437200   -1.386300   -0.798400
     37          1           0       -0.008300   -2.156400   -0.128000
     38          1           0       -1.205100   -1.483400    0.979900
 ---------------------------------------------------------------------
                    Distance matrix (angstroms):
                    1          2          3          4          5
     1  C    0.000000
     2  C    1.407100   0.000000
     3  C    2.438723   1.394285   0.000000
     4  C    2.810863   2.409080   1.390276   0.000000
     5  C    2.428674   2.779340   2.411000   1.394452   0.000000
     6  C    1.409577   2.423289   2.803511   2.427778   1.398638
     7  C    2.538139   3.803882   4.278657   3.752140   2.456736
     8  O    3.706359   4.143772   3.621126   2.335411   1.367239
     9  C    4.170341   4.936083   4.693245   3.544187   2.333038
    10  C    3.874977   4.980751   5.130288   4.237579   2.846779
    11  C    5.671207   6.369758   5.959487   4.674237   3.640480
    12  C    6.465362   7.376909   7.163351   5.952135   4.761538
    13  N    6.218337   7.234469   7.172014   6.063370   4.799819
    14  C    4.889821   5.988664   6.106821   5.167898   3.839096
    15  C    4.887232   5.799033   5.811796   4.911785   3.793729
    16  C    6.399374   7.271253   7.188684   6.204865   5.157671
    17  C    6.917605   7.794483   7.589199   6.435875   5.335810
    18  O    2.897223   4.288431   5.055075   4.768666   3.576790
    19  C    1.504725   2.498104   3.794510   4.314306   3.832000
    20  H    4.435646   5.616278   5.875039   5.054379   3.689827
    21  H    4.210588   4.914186   4.697610   3.660075   2.606874
    22  H    5.195833   6.427208   6.752478   5.963002   4.613525
    23  H    2.170333   1.089027   2.141989   3.387519   3.868210
    24  H    3.421765   2.155482   1.087185   2.152015   3.397533
    25  H    3.897811   3.395311   2.150882   1.086962   2.154841
    26  H    5.971990   6.517859   5.938119   4.583116   3.740879
    27  H    6.232521   6.833432   6.336020   5.050077   4.172312
    28  H    6.572824   7.576098   7.492807   6.367282   5.119559
    29  H    7.507480   8.359046   8.044767   6.771683   5.672394
    30  H    4.586207   5.281360   5.071530   4.073574   3.114409
    31  H    4.581668   5.533792   5.746579   5.077712   4.027068
    32  H    6.885406   7.866750   7.941550   7.053732   5.945968
    33  H    6.839628   7.552266   7.347810   6.372640   5.511197
    34  H    7.009400   7.722496   7.323365   6.079233   5.133242
    35  H    7.961664   8.873381   8.683487   7.523601   6.420049
    36  H    2.150538   3.263328   4.471643   4.832518   4.167404
    37  H    2.160212   2.582596   3.975078   4.793464   4.585824
    38  H    2.147777   3.159789   4.385063   4.813599   4.230930
                    6          7          8          9         10
     6  C    0.000000
     7  C    1.478544   0.000000
     8  O    2.439228   2.840807   0.000000
     9  C    2.795049   2.517982   1.431669   0.000000
    10  C    2.563406   1.510229   2.463360   1.522537   0.000000
    11  C    4.279652   3.873196   2.383876   1.536112   2.544742
    12  C    5.071985   4.235677   3.631525   2.551217   2.732814
    13  N    4.879226   3.855623   3.853891   2.993830   2.534909
    14  C    3.632131   2.513610   3.252989   2.557766   1.532129
    15  C    3.750769   3.043863   3.311433   3.269057   2.600851
    16  C    5.248414   4.483270   4.442348   4.304678   3.775784
    17  C    5.606003   4.786081   4.318447   3.879394   3.648186
    18  O    2.364201   1.229350   4.054434   3.661215   2.382836
    19  C    2.563447   3.038304   5.000888   5.196214   4.528569
    20  H    3.263482   2.089293   3.340554   2.115170   1.100958
    21  H    2.996332   2.884030   2.048227   1.100181   2.149733
    22  H    4.105287   2.763605   4.229385   3.466973   2.137287
    23  H    3.416376   4.700272   5.231910   6.002388   5.971991
    24  H    3.890664   5.365321   4.486570   5.638354   6.181929
    25  H    3.410637   4.609562   2.543689   3.861538   4.827464
    26  H    4.602766   4.391196   2.379688   2.179123   3.212220
    27  H    4.901214   4.620155   2.969457   2.157409   3.350747
    28  H    5.239369   4.273052   4.144515   2.824541   2.800867
    29  H    6.104260   5.319928   4.440960   3.496773   3.823421
    30  H    3.424725   3.144686   2.562069   2.938475   2.764473
    31  H    3.690161   3.009835   3.903097   3.978185   3.078369
    32  H    5.820386   4.876736   5.343977   5.067008   4.268363
    33  H    5.756174   5.214560   4.809638   4.950001   4.622359
    34  H    5.672655   5.102404   3.976647   3.759027   3.950363
    35  H    6.656298   5.748183   5.377322   4.845672   4.570031
    36  H    2.845421   2.961120   5.197491   5.105456   4.345565
    37  H    3.460434   4.111984   5.849549   6.151110   5.588641
    38  H    2.937999   3.114679   5.295376   5.487528   4.611001
                   11         12         13         14         15
    11  C    0.000000
    12  C    1.526861   0.000000
    13  N    2.491632   1.461687   0.000000
    14  C    2.874626   2.477979   1.482343   0.000000
    15  C    3.577485   3.496529   2.395417   1.529183   0.000000
    16  C    4.091699   3.634297   2.367750   2.377304   1.514972
    17  C    3.178745   2.447759   1.470412   2.395064   2.358395
    18  O    4.910113   4.994708   4.393423   2.985591   3.513640
    19  C    6.699323   7.253028   6.859208   5.439700   5.550083
    20  H    2.915993   2.792674   2.817237   2.135544   3.500608
    21  H    2.146677   3.165043   3.860703   3.460350   4.314358
    22  H    3.854329   3.200050   2.072049   1.099508   2.124249
    23  H    7.450986   8.435191   8.255155   6.962611   6.743749
    24  H    6.814792   8.092392   8.147186   7.131289   6.753571
    25  H    4.697690   6.095778   6.341194   5.654954   5.329109
    26  H    1.097267   2.164256   2.815278   3.250764   3.488781
    27  H    1.097369   2.149375   3.419657   3.894052   4.671419
    28  H    2.153471   1.097433   2.089600   2.854098   4.166399
    29  H    2.164129   1.097098   2.111361   3.413269   4.240753
    30  H    3.285525   3.649212   2.907618   2.191492   1.094524
    31  H    4.548082   4.481512   3.319689   2.194503   1.094273
    32  H    4.917177   4.212946   2.794742   2.762293   2.158075
    33  H    4.686313   4.430961   3.323641   3.352349   2.180233
    34  H    2.848233   2.551360   2.139973   2.996555   2.778016
    35  H    3.983525   2.980334   2.126706   3.266303   3.320188
    36  H    6.596675   7.040245   6.736742   5.376954   5.780347
    37  H    7.671841   8.300723   7.941433   6.524779   6.570376
    38  H    6.911678   7.311797   6.704425   5.231693   5.182461
                   16         17         18         19         20
    16  C    0.000000
    17  C    1.516480   0.000000
    18  O    4.862234   5.343900   0.000000
    19  C    7.033633   7.658509   2.757598   0.000000
    20  H    4.498251   4.175033   2.618080   4.868541   0.000000
    21  H    5.377947   4.879634   3.976722   5.201304   2.301532
    22  H    2.771652   2.993868   2.760938   5.444839   2.362383
    23  H    8.215074   8.815456   4.995076   2.693162   6.550292
    24  H    8.075526   8.482164   6.124945   4.653341   6.929918
    25  H    6.458752   6.565136   5.700934   5.401157   5.659641
    26  H    3.824389   2.967135   5.464052   7.117513   3.817434
    27  H    5.154193   4.124590   5.678794   7.294998   3.491622
    28  H    4.439963   3.353098   4.909441   7.216706   2.421602
    29  H    4.030979   2.596052   6.072511   8.336675   3.860687
    30  H    2.141807   2.743175   3.895581   5.509203   3.811237
    31  H    2.172615   3.330007   3.167193   5.038264   3.939363
    32  H    1.096743   2.162996   4.994669   7.310077   4.835077
    33  H    1.093726   2.184078   5.649277   7.564720   5.446746
    34  H    2.140277   1.096590   5.853862   7.933864   4.583195
    35  H    2.173508   1.094398   6.202494   8.632985   4.938536
    36  H    7.237764   7.711070   2.542836   1.094502   4.436298
    37  H    8.053475   8.714050   3.838449   1.095722   5.911956
    38  H    6.598281   7.397785   2.556336   1.094340   5.021301
                   21         22         23         24         25
    21  H    0.000000
    22  H    4.221795   0.000000
    23  H    5.932158   7.317016   0.000000
    24  H    5.604958   7.807185   2.462334   0.000000
    25  H    3.994019   6.561486   4.283022   2.479365   0.000000
    26  H    2.936100   4.317185   7.606163   6.705460   4.420157
    27  H    2.243471   4.807017   7.898525   7.118553   4.956006
    28  H    3.120780   3.313893   8.598726   8.457721   6.611788
    29  H    4.053301   4.081010   9.430207   8.922932   6.780943
    30  H    4.000623   3.038837   6.267885   5.944865   4.366339
    31  H    4.937939   2.355492   6.371904   6.687754   5.640512
    32  H    6.091887   2.716124   8.755034   8.863268   7.403851
    33  H    6.048650   3.816465   8.472323   8.138991   6.510091
    34  H    4.753162   3.823062   8.771614   8.133823   6.035021
    35  H    5.785154   3.628554   9.887798   9.574007   7.624854
    36  H    4.965027   5.285696   3.516063   5.370799   5.902266
    37  H    6.077194   6.534896   2.314056   4.637354   5.857004
    38  H    5.685869   5.104562   3.351174   5.247755   5.879734
                   26         27         28         29         30
    26  H    0.000000
    27  H    1.745425   0.000000
    28  H    3.061867   2.448481   0.000000
    29  H    2.478702   2.474682   1.744656   0.000000
    30  H    2.971515   4.332453   4.434041   4.358372   0.000000
    31  H    4.509548   5.625320   5.027125   5.277352   1.774864
    32  H    4.792275   5.968004   4.852463   4.595012   3.042087
    33  H    4.179881   5.717419   5.342065   4.700574   2.404097
    34  H    2.296376   3.708290   3.618716   2.526599   2.723245
    35  H    3.800304   4.803463   3.763853   2.792639   3.799017
    36  H    7.170133   7.116631   6.841651   8.135980   5.852572
    37  H    8.061983   8.214349   8.258030   9.380540   6.467273
    38  H    7.269112   7.635418   7.338588   8.383535   5.274301
                   31         32         33         34         35
    31  H    0.000000
    32  H    2.420809   0.000000
    33  H    2.665570   1.777889   0.000000
    34  H    3.823691   3.036883   2.384266   0.000000
    35  H    4.180656   2.410882   2.691774   1.773133   0.000000
    36  H    5.363771   7.460506   7.898343   8.053883   8.637969
    37  H    6.019869   8.335305   8.527401   8.951233   9.700774
    38  H    4.493450   6.756659   7.101402   7.766834   8.328750
                   36         37         38
    36  H    0.000000
    37  H    1.756202   0.000000
    38  H    1.796009   1.764285   0.000000
 Stoichiometry    C16H19NO2
 Framework group  C1[X(C16H19NO2)]
 Deg. of freedom   108
 Full point group                 C1      NOp   1
 Largest Abelian subgroup         C1      NOp   1
 Largest concise Abelian subgroup C1      NOp   1
                         Standard orientation:                         
 ---------------------------------------------------------------------
 Center     Atomic      Atomic             Coordinates (Angstroms)
 Number     Number       Type             X           Y           Z
 ---------------------------------------------------------------------
      1          6           0       -3.072955    0.617050   -0.047973
      2          6           0       -4.023111   -0.276703    0.479606
      3          6           0       -3.661398   -1.568138    0.860906
      4          6           0       -2.344936   -1.989465    0.711645
      5          6           0       -1.393582   -1.123344    0.173820
      6          6           0       -1.738534    0.183901   -0.184383
      7          6           0       -0.648107    1.069268   -0.646105
      8          8           0       -0.126162   -1.627354    0.079142
      9          6           0        0.611050   -1.079169   -1.018895
     10          6           0        0.682668    0.441327   -0.985985
     11          6           0        1.999293   -1.736316   -0.994836
     12          6           0        3.127786   -0.745513   -1.270730
     13          7           0        3.134005    0.384008   -0.343006
     14          6           0        1.802683    0.986373   -0.093847
     15          6           0        1.582959    0.874467    1.415325
     16          6           0        2.995735    0.911666    1.961055
     17          6           0        3.749434    0.064929    0.953740
     18          8           0       -0.807074    2.284689   -0.739828
     19          6           0       -3.531556    2.000395   -0.422458
     20          1           0        0.899430    0.763744   -2.016116
     21          1           0        0.103805   -1.394647   -1.942787
     22          1           0        1.911990    2.057166   -0.318282
     23          1           0       -5.059076    0.034737    0.605158
     24          1           0       -4.406367   -2.243065    1.274992
     25          1           0       -2.058753   -2.994957    1.009252
     26          1           0        2.169562   -2.243115   -0.036630
     27          1           0        2.029830   -2.529318   -1.752752
     28          1           0        3.026933   -0.359299   -2.292995
     29          1           0        4.095341   -1.262281   -1.250426
     30          1           0        1.112207   -0.072932    1.696057
     31          1           0        0.973920    1.692773    1.811408
     32          1           0        3.377124    1.939948    1.965787
     33          1           0        3.060326    0.512604    2.977330
     34          1           0        3.630560   -0.992592    1.218368
     35          1           0        4.819216    0.295723    0.951270
     36          1           0       -3.247406    2.235898   -1.452862
     37          1           0       -4.622627    2.087020   -0.370804
     38          1           0       -3.112723    2.741494    0.265243
 ---------------------------------------------------------------------
 Rotational constants (GHZ):           0.7723978           0.2767714           0.2470659
 Standard basis: STO-3G (5D, 7F)
 There are   114 symmetry adapted cartesian basis functions of A   symmetry.
 There are   114 symmetry adapted basis functions of A   symmetry.
   114 basis functions,   342 primitive gaussians,   114 cartesian basis functions
    69 alpha electrons       69 beta electrons
       nuclear repulsion energy      1509.0484336273 Hartrees.
 NAtoms=   38 NActive=   38 NUniq=   38 SFac= 1.00D+00 NAtFMM=   60 NAOKFM=F Big=F
 Integral buffers will be    131072 words long.
 Raffenetti 1 integral format.
 Two-electron integral symmetry is turned on.
 One-electron integrals computed using PRISM.
 NBasis=   114 RedAO= T EigKep=  1.73D-01  NBF=   114
 NBsUse=   114 1.00D-06 EigRej= -1.00D+00 NBFU=   114
 ExpMin= 1.69D-01 ExpMax= 1.31D+02 ExpMxC= 1.31D+02 IAcc=3 IRadAn=         5 AccDes= 0.00D+00
 Harris functional with IExCor=  205 and IRadAn=       5 diagonalized for initial guess.
 HarFok:  IExCor=  205 AccDes= 0.00D+00 IRadAn=         5 IDoV= 1 UseB2=F ITyADJ=14
 ICtDFT=  3500011 ScaDFX=  1.000000  1.000000  1.000000  1.000000
 FoFCou: FMM=F IPFlag=           0 FMFlag=      100000 FMFlg1=           0
         NFxFlg=           0 DoJE=T BraDBF=F KetDBF=T FulRan=T
         wScrn=  0.000000 ICntrl=       500 IOpCl=  0 I1Cent=   200000004 NGrid=           0
         NMat0=    1 NMatS0=      1 NMatT0=    0 NMatD0=    1 NMtDS0=    0 NMtDT0=    0
 Petite list used in FoFCou.
 Requested convergence on RMS density matrix=1.00D-08 within 128 cycles.
 Requested convergence on MAX density matrix=1.00D-06.
 Requested convergence on             energy=1.00D-06.
 No special actions if energy rises.
 Integral accuracy reduced to 1.0D-05 until final iterations.
 Initial convergence to 1.0D-05 achieved.  Increase integral accuracy.
 SCF Done:  E(RHF) =  -811.051532735     A.U. after   17 cycles
            NFock= 17  Conv=0.79D-08     -V/T= 2.0093
 Range of M.O.s used for correlation:     1   114
 NBasis=   114 NAE=    69 NBE=    69 NFC=     0 NFV=     0
 NROrb=    114 NOA=    69 NOB=    69 NVA=    45 NVB=    45
          Differentiating once with respect to magnetic field using GIAOs.
          Electric field/nuclear overlap derivatives assumed to be zero.
 FoFCou: FMM=F IPFlag=           0 FMFlag=      100000 FMFlg1=           0
         NFxFlg=           0 DoJE=F BraDBF=F KetDBF=T FulRan=T
         wScrn=  0.000000 ICntrl=      6100 IOpCl=  0 I1Cent=           7 NGrid=          38
         NMat0=    1 NMatS0=      1 NMatT0=    0 NMatD0=    1 NMtDS0=    0 NMtDT0=    0
 Symmetry not used in FoFCou.
 FoFJK:  IHMeth= 1 ICntrl=    6127 DoSepK=F KAlg= 0 I1Cent=           0 FoldK=F
 IRaf=         1 NMat=       1 IRICut=       1 DoRegI=T DoRafI=F ISym2E= 0 IDoP0=0 IntGTp=1.
          There are     3 degrees of freedom in the 1st order CPHF.  IDoFFX=0 NUNeed=     3.
      3 vectors produced by pass  0 Test12= 1.04D-13 3.33D-08 XBig12= 2.21D+01 1.39D+00.
 AX will form     3 AO Fock derivatives at one time.
      3 vectors produced by pass  1 Test12= 1.04D-13 3.33D-08 XBig12= 1.34D-01 1.98D-01.
      3 vectors produced by pass  2 Test12= 1.04D-13 3.33D-08 XBig12= 4.81D-03 2.65D-02.
      3 vectors produced by pass  3 Test12= 1.04D-13 3.33D-08 XBig12= 1.38D-04 2.48D-03.
      3 vectors produced by pass  4 Test12= 1.04D-13 3.33D-08 XBig12= 1.99D-06 1.77D-04.
      3 vectors produced by pass  5 Test12= 1.04D-13 3.33D-08 XBig12= 2.33D-08 1.89D-05.
      3 vectors produced by pass  6 Test12= 1.04D-13 3.33D-08 XBig12= 4.21D-10 3.45D-06.
      3 vectors produced by pass  7 Test12= 1.04D-13 3.33D-08 XBig12= 6.86D-12 3.61D-07.
      1 vectors produced by pass  8 Test12= 1.04D-13 3.33D-08 XBig12= 1.13D-13 3.70D-08.
 InvSVY:  IOpt=1 It=  1 EMax= 8.88D-16
 Solved reduced A of dimension    25 with     3 vectors.
 Calculating GIAO nuclear magnetic shielding tensors.
 SCF GIAO Magnetic shielding tensor (ppm):
      1  C    Isotropic =   113.9592   Anisotropy =   169.6797
   XX=    77.5428   YX=    26.7865   ZX=    22.5753
   XY=    32.0184   YY=    58.5456   ZY=    52.1081
   XZ=    21.7554   YZ=    47.4388   ZZ=   205.7892
   Eigenvalues:    31.8862    82.9124   227.0790
      2  C    Isotropic =   123.5432   Anisotropy =   144.0711
   XX=    47.7940   YX=    32.0180   ZX=    27.9805
   XY=    28.5712   YY=   118.6427   ZY=    29.1591
   XZ=    30.6958   YZ=    23.5214   ZZ=   204.1928
   Eigenvalues:    34.4509   116.5880   219.5906
      3  C    Isotropic =   117.3542   Anisotropy =   168.5753
   XX=    70.9209   YX=   -25.6116   ZX=    45.1529
   XY=   -26.9129   YY=    82.9680   ZY=    58.9544
   XZ=    46.8625   YZ=    58.1892   ZZ=   198.1736
   Eigenvalues:    19.9357   102.3891   229.7377
      4  C    Isotropic =   131.0314   Anisotropy =   146.6264
   XX=   118.3737   YX=    24.1954   ZX=    17.8737
   XY=    22.3014   YY=    68.6547   ZY=    53.4362
   XZ=    20.8103   YZ=    47.9694   ZZ=   206.0656
   Eigenvalues:    48.1039   116.2079   228.7823
      5  C    Isotropic =   105.8428   Anisotropy =   132.9350
   XX=    57.4191   YX=    24.1902   ZX=    25.7189
   XY=    11.7106   YY=    82.6556   ZY=    35.8819
   XZ=    21.6322   YZ=    33.1349   ZZ=   177.4538
   Eigenvalues:    47.8080    75.2543   194.4662
      6  C    Isotropic =   130.5703   Anisotropy =   152.3355
   XX=    86.4579   YX=    -9.6076   ZX=    34.0752
   XY=   -11.4984   YY=    92.7904   ZY=    44.4283
   XZ=    26.8263   YZ=    45.8423   ZZ=   212.4625
   Eigenvalues:    60.2927    99.2909   232.1273
      7  C    Isotropic =    91.4330   Anisotropy =   142.6562
   XX=   -22.0303   YX=   -15.6175   ZX=    68.4684
   XY=   -13.9056   YY=   134.9822   ZY=    11.1513
   XZ=    73.0557   YZ=    14.3196   ZZ=   161.3471
   Eigenvalues:   -47.9504   135.7122   186.5371
      8  O    Isotropic =   345.5811   Anisotropy =    97.0823
   XX=   334.4940   YX=   -28.1046   ZX=    53.4343
   XY=   -44.7569   YY=   317.4722   ZY=    49.4072
   XZ=    32.5714   YZ=    10.3915   ZZ=   384.7771
   Eigenvalues:   266.8152   359.6254   410.3027
      9  C    Isotropic =   187.9634   Anisotropy =    44.9508
   XX=   191.7717   YX=     4.5575   ZX=   -20.6901
   XY=     8.9571   YY=   177.2473   ZY=   -10.1635
   XZ=   -20.5874   YZ=   -11.6601   ZZ=   194.8713
   Eigenvalues:   170.5947   175.3649   217.9306
     10  C    Isotropic =   212.6057   Anisotropy =     9.1603
   XX=   217.7930   YX=    -5.5588   ZX=     2.8888
   XY=    -1.6347   YY=   203.9317   ZY=     1.4850
   XZ=    -0.7508   YZ=     4.8960   ZZ=   216.0923
   Eigenvalues:   202.2420   216.8625   218.7125
     11  C    Isotropic =   221.0514   Anisotropy =    21.5328
   XX=   232.3646   YX=    -5.5938   ZX=    -5.1002
   XY=    -5.3905   YY=   217.0440   ZY=    -2.0162
   XZ=    -6.5744   YZ=    -0.2618   ZZ=   213.7456
   Eigenvalues:   210.7607   216.9869   235.4066
     12  C    Isotropic =   205.2802   Anisotropy =    32.9924
   XX=   195.5169   YX=     0.4047   ZX=    -3.4561
   XY=     0.5037   YY=   210.6108   ZY=    19.8919
   XZ=    -1.9894   YZ=    14.1660   ZZ=   209.7129
   Eigenvalues:   191.7401   196.8253   227.2751
     13  N    Isotropic =   300.6778   Anisotropy =    56.3690
   XX=   318.2773   YX=   -39.4360   ZX=    11.0923
   XY=   -31.0194   YY=   261.4115   ZY=     9.2943
   XZ=    17.1303   YZ=    21.7471   ZZ=   322.3445
   Eigenvalues:   239.6700   324.1062   338.2571
     14  C    Isotropic =   194.7922   Anisotropy =    34.9609
   XX=   211.5207   YX=   -15.7898   ZX=    -3.4050
   XY=   -15.9369   YY=   178.7770   ZY=     1.2444
   XZ=     1.9368   YZ=     5.3432   ZZ=   194.0788
   Eigenvalues:   172.0016   194.2754   218.0994
     15  C    Isotropic =   214.4576   Anisotropy =    24.5487
   XX=   222.4687   YX=    -8.6495   ZX=     1.9363
   XY=     2.2201   YY=   192.8841   ZY=     1.1631
   XZ=     7.7388   YZ=     3.1407   ZZ=   228.0201
   Eigenvalues:   192.3372   220.2122   230.8234
     16  C    Isotropic =   216.1076   Anisotropy =    17.2651
   XX=   224.9722   YX=    -8.5790   ZX=     5.1091
   XY=    -6.8622   YY=   203.1765   ZY=    12.0781
   XZ=     2.5025   YZ=     6.2592   ZZ=   220.1741
   Eigenvalues:   196.5700   224.1352   227.6177
     17  C    Isotropic =   198.6503   Anisotropy =    46.7754
   XX=   194.0603   YX=    -8.1019   ZX=    13.8751
   XY=   -17.6835   YY=   177.3927   ZY=     4.6081
   XZ=    13.5817   YZ=     1.6948   ZZ=   224.4980
   Eigenvalues:   168.7114   197.4056   229.8339
     18  O    Isotropic =  -354.3004   Anisotropy =  1284.7391
   XX=  -324.9603   YX=   124.2946   ZX=   243.4029
   XY=   134.0701   YY= -1134.3839   ZY=   144.9906
   XZ=   263.0065   YZ=   203.2181   ZZ=   396.4430
   Eigenvalues: -1166.5150  -398.5785   502.1923
     19  C    Isotropic =   218.2601   Anisotropy =    23.5938
   XX=   216.7795   YX=    -5.4558   ZX=    -0.2128
   XY=    -5.4162   YY=   230.0746   ZY=    -7.9261
   XZ=     1.6015   YZ=    -6.7636   ZZ=   207.9263
   Eigenvalues:   205.6307   215.1604   233.9893
     20  H    Isotropic =    30.9033   Anisotropy =    13.3168
   XX=    27.1057   YX=    -0.7465   ZX=     1.5657
   XY=    -0.6437   YY=    28.2159   ZY=    -4.7512
   XZ=    -2.1154   YZ=    -5.7697   ZZ=    37.3882
   Eigenvalues:    25.4802    27.4484    39.7811
     21  H    Isotropic =    31.1064   Anisotropy =    11.0639
   XX=    30.3587   YX=     1.5596   ZX=     4.0870
   XY=     0.6690   YY=    27.7469   ZY=     3.4048
   XZ=     1.3847   YZ=     5.8128   ZZ=    35.2136
   Eigenvalues:    25.5418    29.2950    38.4823
     22  H    Isotropic =    30.6754   Anisotropy =    14.0307
   XX=    27.0375   YX=    -1.2553   ZX=     0.7790
   XY=     1.1230   YY=    39.3296   ZY=    -3.7730
   XZ=     2.4909   YZ=    -2.5046   ZZ=    25.6590
   Eigenvalues:    24.1127    27.8842    40.0292
     23  H    Isotropic =    25.8761   Anisotropy =     5.8439
   XX=    27.2565   YX=     0.7216   ZX=    -1.4776
   XY=     0.8285   YY=    28.1376   ZY=    -2.6047
   XZ=    -1.2998   YZ=    -2.6878   ZZ=    22.2341
   Eigenvalues:    21.0489    26.8074    29.7720
     24  H    Isotropic =    25.3105   Anisotropy =     3.7701
   XX=    27.3665   YX=    -0.6506   ZX=    -0.9922
   XY=    -0.9801   YY=    26.3601   ZY=    -1.4506
   XZ=    -0.9929   YZ=    -1.7059   ZZ=    22.2051
   Eigenvalues:    21.4291    26.6786    27.8239
     25  H    Isotropic =    25.7360   Anisotropy =     7.3229
   XX=    28.6264   YX=     1.5324   ZX=    -2.3422
   XY=     1.1876   YY=    26.8780   ZY=    -2.5023
   XZ=    -2.0895   YZ=    -2.9870   ZZ=    21.7037
   Eigenvalues:    20.2329    26.3572    30.6180
     26  H    Isotropic =    31.5807   Anisotropy =    10.0758
   XX=    29.8417   YX=    -1.3778   ZX=     1.7425
   XY=    -1.0335   YY=    33.4823   ZY=    -4.9879
   XZ=     2.0016   YZ=    -5.4369   ZZ=    31.4182
   Eigenvalues:    26.9492    29.4951    38.2979
     27  H    Isotropic =    31.7816   Anisotropy =    15.9072
   XX=    28.8114   YX=    -1.6059   ZX=    -1.2396
   XY=    -1.0854   YY=    36.0749   ZY=     7.8672
   XZ=    -1.6847   YZ=     8.8981   ZZ=    30.4585
   Eigenvalues:    24.3881    28.5704    42.3865
     28  H    Isotropic =    31.7346   Anisotropy =    13.8959
   XX=    28.3477   YX=     0.2877   ZX=    -2.6816
   XY=     0.4240   YY=    26.9101   ZY=    -1.0908
   XZ=    -3.7640   YZ=    -2.3394   ZZ=    39.9459
   Eigenvalues:    26.6841    27.5212    40.9986
     29  H    Isotropic =    31.7625   Anisotropy =    14.6886
   XX=    38.1224   YX=    -4.5821   ZX=    -2.7797
   XY=    -5.6543   YY=    29.4377   ZY=     3.3231
   XZ=    -2.7223   YZ=     2.9137   ZZ=    27.7273
   Eigenvalues:    25.2423    28.4902    41.5549
     30  H    Isotropic =    32.5410   Anisotropy =     9.4421
   XX=    33.5361   YX=     5.3277   ZX=    -1.0232
   XY=     7.1753   YY=    31.3520   ZY=    -0.7177
   XZ=     1.6563   YZ=    -1.6606   ZZ=    32.7349
   Eigenvalues:    25.9154    32.8720    38.8357
     31  H    Isotropic =    32.9963   Anisotropy =    13.0223
   XX=    34.4310   YX=    -5.9583   ZX=    -2.7983
   XY=    -4.2829   YY=    32.5951   ZY=     5.8588
   XZ=    -0.2019   YZ=     6.3587   ZZ=    31.9626
   Eigenvalues:    25.3532    31.9578    41.6778
     32  H    Isotropic =    32.0763   Anisotropy =    15.2428
   XX=    30.2891   YX=     4.7411   ZX=     2.1779
   XY=     5.3989   YY=    37.5013   ZY=     4.5978
   XZ=     3.1344   YZ=     4.8367   ZZ=    28.4385
   Eigenvalues:    26.2929    27.6978    42.2382
     33  H    Isotropic =    32.4205   Anisotropy =    15.5834
   XX=    28.4337   YX=    -0.6142   ZX=     2.9734
   XY=    -0.1441   YY=    26.9929   ZY=    -1.7835
   XZ=     3.5755   YZ=    -1.8465   ZZ=    41.8349
   Eigenvalues:    26.7739    27.6782    42.8095
     34  H    Isotropic =    32.0302   Anisotropy =     9.4514
   XX=    28.8501   YX=    -2.7691   ZX=     3.0674
   XY=    -2.7541   YY=    35.9654   ZY=    -1.5374
   XZ=     3.4869   YZ=    -2.6357   ZZ=    31.2751
   Eigenvalues:    26.4245    31.3349    38.3311
     35  H    Isotropic =    31.5132   Anisotropy =    15.4082
   XX=    41.3647   YX=     1.0269   ZX=     1.5777
   XY=     0.1927   YY=    25.5391   ZY=     1.0126
   XZ=     3.0457   YZ=     1.7071   ZZ=    27.6358
   Eigenvalues:    24.8554    27.8988    41.7853
     36  H    Isotropic =    31.2860   Anisotropy =    10.1921
   XX=    29.9337   YX=    -1.4160   ZX=    -2.4465
   XY=    -0.7298   YY=    29.5769   ZY=    -4.1077
   XZ=    -0.2375   YZ=    -7.0848   ZZ=    34.3475
   Eigenvalues:    25.2993    30.4781    38.0807
     37  H    Isotropic =    31.0094   Anisotropy =    12.2904
   XX=    38.5963   YX=    -2.2086   ZX=    -0.9647
   XY=    -2.5829   YY=    29.7405   ZY=    -1.6506
   XZ=    -0.1423   YZ=    -2.3596   ZZ=    24.6914
   Eigenvalues:    23.8697    29.9555    39.2030
     38  H    Isotropic =    30.7256   Anisotropy =    11.3029
   XX=    29.4117   YX=     2.0300   ZX=     1.4623
   XY=     1.1604   YY=    36.0491   ZY=     3.1470
   XZ=     0.5741   YZ=     5.8646   ZZ=    26.7162
   Eigenvalues:    24.8679    29.0482    38.2609
 End of Minotr F.D. properties file   721 does not exist.
 End of Minotr F.D. properties file   722 does not exist.
 End of Minotr F.D. properties file   788 does not exist.

 **********************************************************************

            Population analysis using the SCF Density.

 **********************************************************************

 Orbital symmetries:
       Occupied  (A) (A) (A) (A) (A) (A) (A) (A) (A) (A) (A) (A)
                 (A) (A) (A) (A) (A) (A) (A) (A) (A) (A) (A) (A)
                 (A) (A) (A) (A) (A) (A) (A) (A) (A) (A) (A) (A)
                 (A) (A) (A) (A) (A) (A) (A) (A) (A) (A) (A) (A)
                 (A) (A) (A) (A) (A) (A) (A) (A) (A) (A) (A) (A)
                 (A) (A) (A) (A) (A) (A) (A) (A) (A)
       Virtual   (A) (A) (A) (A) (A) (A) (A) (A) (A) (A) (A) (A)
                 (A) (A) (A) (A) (A) (A) (A) (A) (A) (A) (A) (A)
                 (A) (A) (A) (A) (A) (A) (A) (A) (A) (A) (A) (A)
                 (A) (A) (A) (A) (A) (A) (A) (A) (A)
 The electronic state is 1-A.
 Alpha  occ. eigenvalues --  -20.29920 -20.26345 -15.30644 -11.11852 -11.11410
 Alpha  occ. eigenvalues --  -11.09827 -11.07746 -11.07692 -11.06652 -11.06529
 Alpha  occ. eigenvalues --  -11.05363 -11.05156 -11.04433 -11.04292 -11.04132
 Alpha  occ. eigenvalues --  -11.04092 -11.03101 -11.02440 -11.02128  -1.34733
 Alpha  occ. eigenvalues --   -1.31627  -1.19310  -1.09990  -1.04984  -1.03060
 Alpha  occ. eigenvalues --   -0.99288  -0.98140  -0.95337  -0.91753  -0.88480
 Alpha  occ. eigenvalues --   -0.84115  -0.80522  -0.78483  -0.75792  -0.74381
 Alpha  occ. eigenvalues --   -0.71408  -0.68369  -0.65687  -0.64997  -0.62069
 Alpha  occ. eigenvalues --   -0.61291  -0.60176  -0.58596  -0.57119  -0.56173
 Alpha  occ. eigenvalues --   -0.55417  -0.54954  -0.52836  -0.52166  -0.51943
 Alpha  occ. eigenvalues --   -0.50657  -0.49785  -0.48897  -0.48602  -0.47339
 Alpha  occ. eigenvalues --   -0.46251  -0.45500  -0.44812  -0.44031  -0.43269
 Alpha  occ. eigenvalues --   -0.42898  -0.42670  -0.40333  -0.38617  -0.36838
 Alpha  occ. eigenvalues --   -0.31780  -0.27432  -0.26814  -0.24861
 Alpha virt. eigenvalues --    0.21048   0.26665   0.34302   0.48634   0.51319
 Alpha virt. eigenvalues --    0.53600   0.55736   0.56461   0.57137   0.59262
 Alpha virt. eigenvalues --    0.60195   0.60945   0.61438   0.63695   0.64360
 Alpha virt. eigenvalues --    0.65887   0.66924   0.68597   0.69019   0.69491
 Alpha virt. eigenvalues --    0.69878   0.71165   0.72575   0.73508   0.73697
 Alpha virt. eigenvalues --    0.73894   0.74863   0.75110   0.76111   0.76588
 Alpha virt. eigenvalues --    0.77691   0.79251   0.79793   0.80257   0.82591
 Alpha virt. eigenvalues --    0.83820   0.84885   0.86017   0.86576   0.86974
 Alpha virt. eigenvalues --    0.91093   0.93335   1.00456   1.11741   1.13550
          Condensed to atoms (all electrons):
               1          2          3          4          5          6
     1  C    4.758115   0.505712  -0.028714  -0.010062  -0.028089   0.496979
     2  C    0.505712   4.806125   0.504068  -0.031451  -0.011384  -0.031191
     3  C   -0.028714   0.504068   4.759289   0.508877  -0.029315  -0.009551
     4  C   -0.010062  -0.031451   0.508877   4.806841   0.499325  -0.032572
     5  C   -0.028089  -0.011384  -0.029315   0.499325   4.754251   0.490507
     6  C    0.496979  -0.031191  -0.009551  -0.032572   0.490507   4.870432
     7  C   -0.023570   0.000774   0.000019   0.000814  -0.029993   0.390573
     8  O    0.000252   0.000008   0.000354  -0.027093   0.293400  -0.017455
     9  C    0.000031   0.000000  -0.000020   0.001634  -0.040612  -0.007377
    10  C    0.000617  -0.000007  -0.000000  -0.000038  -0.004437  -0.034557
    11  C    0.000000   0.000000   0.000000  -0.000015   0.001667  -0.000004
    12  C   -0.000000  -0.000000  -0.000000   0.000000  -0.000015  -0.000000
    13  N    0.000000  -0.000000  -0.000000  -0.000000   0.000000  -0.000003
    14  C   -0.000005   0.000000   0.000000   0.000000   0.000036   0.000464
    15  C   -0.000001   0.000000   0.000000  -0.000000  -0.000038   0.000027
    16  C   -0.000000   0.000000  -0.000000   0.000000   0.000000   0.000000
    17  C   -0.000000   0.000000   0.000000   0.000000   0.000000   0.000000
    18  O   -0.001045  -0.000004  -0.000000  -0.000002   0.000317  -0.027831
    19  C    0.381443  -0.030124   0.000877   0.000011   0.000721  -0.024191
    20  H   -0.000019   0.000000  -0.000000   0.000002   0.000044   0.000943
    21  H   -0.000007  -0.000001  -0.000000   0.000142  -0.003325   0.000496
    22  H   -0.000000   0.000000   0.000000   0.000000  -0.000003   0.000011
    23  H   -0.025035   0.394172  -0.026770   0.001419   0.000048   0.001263
    24  H    0.001321  -0.024814   0.393617  -0.025120   0.001371   0.000008
    25  H    0.000036   0.001382  -0.024620   0.393443  -0.025323   0.001243
    26  H    0.000000   0.000000   0.000000  -0.000006   0.000109   0.000001
    27  H   -0.000000  -0.000000  -0.000000   0.000001  -0.000037  -0.000000
    28  H    0.000000  -0.000000   0.000000   0.000000   0.000000  -0.000000
    29  H    0.000000   0.000000   0.000000  -0.000000   0.000000   0.000000
    30  H    0.000001  -0.000000  -0.000000  -0.000004  -0.000125  -0.000075
    31  H   -0.000000   0.000000   0.000000   0.000000  -0.000001  -0.000029
    32  H    0.000000  -0.000000   0.000000  -0.000000  -0.000000  -0.000000
    33  H   -0.000000   0.000000  -0.000000   0.000000   0.000000   0.000000
    34  H    0.000000  -0.000000  -0.000000   0.000000  -0.000000  -0.000000
    35  H    0.000000  -0.000000  -0.000000  -0.000000   0.000000  -0.000000
    36  H   -0.021091   0.000916  -0.000023   0.000002   0.000005  -0.002300
    37  H   -0.020592  -0.005568   0.000059  -0.000000  -0.000016   0.001130
    38  H   -0.021132   0.000459  -0.000023   0.000003  -0.000004  -0.001399
               7          8          9         10         11         12
     1  C   -0.023570   0.000252   0.000031   0.000617   0.000000  -0.000000
     2  C    0.000774   0.000008   0.000000  -0.000007   0.000000  -0.000000
     3  C    0.000019   0.000354  -0.000020  -0.000000   0.000000  -0.000000
     4  C    0.000814  -0.027093   0.001634  -0.000038  -0.000015   0.000000
     5  C   -0.029993   0.293400  -0.040612  -0.004437   0.001667  -0.000015
     6  C    0.390573  -0.017455  -0.007377  -0.034557  -0.000004  -0.000000
     7  C    4.761055  -0.002302  -0.021196   0.357602   0.000617   0.000039
     8  O   -0.002302   7.801520   0.261406  -0.015859  -0.020388   0.000255
     9  C   -0.021196   0.261406   4.740691   0.357109   0.358564  -0.020587
    10  C    0.357602  -0.015859   0.357109   4.826423  -0.022260  -0.009100
    11  C    0.000617  -0.020388   0.358564  -0.022260   4.777448   0.360006
    12  C    0.000039   0.000255  -0.020587  -0.009100   0.360006   4.697467
    13  N    0.000366   0.000003  -0.002251  -0.015909  -0.022357   0.331140
    14  C   -0.021043   0.000063  -0.021248   0.358751  -0.006014  -0.031054
    15  C   -0.002206  -0.000378  -0.000821  -0.019772   0.000108   0.000949
    16  C    0.000012   0.000001  -0.000004   0.000872   0.000009   0.001302
    17  C   -0.000009  -0.000000   0.000077   0.000889  -0.001349  -0.034057
    18  O    0.432203   0.000000   0.000298  -0.026122  -0.000001  -0.000000
    19  C   -0.002660  -0.000001  -0.000000   0.000008  -0.000000   0.000000
    20  H   -0.023324   0.000582  -0.023087   0.378510  -0.000219  -0.000675
    21  H   -0.000484  -0.019367   0.378489  -0.027229  -0.024656   0.000814
    22  H   -0.001437  -0.000009   0.001230  -0.026239  -0.000042   0.001518
    23  H   -0.000014   0.000000  -0.000000   0.000000   0.000000  -0.000000
    24  H    0.000001  -0.000005   0.000000  -0.000000  -0.000000   0.000000
    25  H   -0.000019  -0.001086   0.000034   0.000000  -0.000003   0.000000
    26  H   -0.000019  -0.002082  -0.021357   0.000556   0.380188  -0.021164
    27  H   -0.000012   0.000495  -0.021945   0.001157   0.382212  -0.020910
    28  H    0.000006  -0.000002  -0.001783  -0.000877  -0.026257   0.380976
    29  H    0.000000  -0.000005   0.001155   0.000079  -0.022229   0.383208
    30  H   -0.000017   0.000359   0.000068  -0.003006  -0.000051  -0.000005
    31  H    0.000047   0.000008   0.000007   0.000148  -0.000002  -0.000018
    32  H    0.000000  -0.000000  -0.000000  -0.000004  -0.000001  -0.000010
    33  H   -0.000000   0.000000   0.000000  -0.000017   0.000003  -0.000031
    34  H    0.000000   0.000001   0.000015   0.000001   0.000087  -0.005765
    35  H    0.000000  -0.000000  -0.000002  -0.000018  -0.000035   0.000631
    36  H   -0.000098  -0.000000  -0.000000  -0.000003  -0.000000   0.000000
    37  H    0.000016   0.000000   0.000000   0.000000   0.000000  -0.000000
    38  H   -0.000039  -0.000000  -0.000000  -0.000003   0.000000  -0.000000
              13         14         15         16         17         18
     1  C    0.000000  -0.000005  -0.000001  -0.000000  -0.000000  -0.001045
     2  C   -0.000000   0.000000   0.000000   0.000000   0.000000  -0.000004
     3  C   -0.000000   0.000000   0.000000  -0.000000   0.000000  -0.000000
     4  C   -0.000000   0.000000  -0.000000   0.000000   0.000000  -0.000002
     5  C    0.000000   0.000036  -0.000038   0.000000   0.000000   0.000317
     6  C   -0.000003   0.000464   0.000027   0.000000   0.000000  -0.027831
     7  C    0.000366  -0.021043  -0.002206   0.000012  -0.000009   0.432203
     8  O    0.000003   0.000063  -0.000378   0.000001  -0.000000   0.000000
     9  C   -0.002251  -0.021248  -0.000821  -0.000004   0.000077   0.000298
    10  C   -0.015909   0.358751  -0.019772   0.000872   0.000889  -0.026122
    11  C   -0.022357  -0.006014   0.000108   0.000009  -0.001349  -0.000001
    12  C    0.331140  -0.031054   0.000949   0.001302  -0.034057  -0.000000
    13  N    6.510685   0.325785  -0.029139  -0.028384   0.332292  -0.000000
    14  C    0.325785   4.735472   0.363846  -0.035992  -0.043303  -0.001095
    15  C   -0.029139   0.363846   4.777867   0.363641  -0.039422  -0.000013
    16  C   -0.028384  -0.035992   0.363641   4.753748   0.365139  -0.000000
    17  C    0.332292  -0.043303  -0.039422   0.365139   4.716133  -0.000000
    18  O   -0.000000  -0.001095  -0.000013  -0.000000  -0.000000   7.856067
    19  C    0.000000  -0.000000  -0.000000  -0.000000  -0.000000  -0.001487
    20  H   -0.000751  -0.022238   0.001212  -0.000022  -0.000005  -0.001580
    21  H    0.000001   0.001250  -0.000007   0.000000  -0.000000  -0.000003
    22  H   -0.029451   0.382915  -0.027456  -0.000840   0.001614   0.000344
    23  H    0.000000  -0.000000  -0.000000  -0.000000  -0.000000   0.000000
    24  H   -0.000000   0.000000  -0.000000   0.000000   0.000000  -0.000000
    25  H    0.000000  -0.000000  -0.000000   0.000000  -0.000000   0.000000
    26  H   -0.001112   0.000150  -0.000089  -0.000020  -0.000329   0.000000
    27  H    0.000917   0.000024   0.000001   0.000000   0.000006   0.000000
    28  H   -0.024454  -0.000523  -0.000031  -0.000034   0.001814   0.000000
    29  H   -0.018134   0.001543  -0.000031   0.000031  -0.004438   0.000000
    30  H    0.000041  -0.020932   0.382294  -0.022528  -0.000869   0.000005
    31  H    0.000969  -0.019135   0.384036  -0.019779   0.001663  -0.000047
    32  H   -0.000236  -0.000946  -0.021999   0.384041  -0.021588   0.000000
    33  H    0.000987   0.001540  -0.019502   0.384550  -0.019224   0.000000
    34  H   -0.019733   0.000591  -0.000594  -0.023221   0.379313  -0.000000
    35  H   -0.023104   0.001756   0.001519  -0.020589   0.383175   0.000000
    36  H   -0.000000  -0.000000   0.000000   0.000000   0.000000  -0.000223
    37  H    0.000000   0.000000  -0.000000   0.000000  -0.000000   0.000058
    38  H   -0.000000   0.000000   0.000000  -0.000000   0.000000  -0.000431
              19         20         21         22         23         24
     1  C    0.381443  -0.000019  -0.000007  -0.000000  -0.025035   0.001321
     2  C   -0.030124   0.000000  -0.000001   0.000000   0.394172  -0.024814
     3  C    0.000877  -0.000000  -0.000000   0.000000  -0.026770   0.393617
     4  C    0.000011   0.000002   0.000142   0.000000   0.001419  -0.025120
     5  C    0.000721   0.000044  -0.003325  -0.000003   0.000048   0.001371
     6  C   -0.024191   0.000943   0.000496   0.000011   0.001263   0.000008
     7  C   -0.002660  -0.023324  -0.000484  -0.001437  -0.000014   0.000001
     8  O   -0.000001   0.000582  -0.019367  -0.000009   0.000000  -0.000005
     9  C   -0.000000  -0.023087   0.378489   0.001230  -0.000000   0.000000
    10  C    0.000008   0.378510  -0.027229  -0.026239   0.000000  -0.000000
    11  C   -0.000000  -0.000219  -0.024656  -0.000042   0.000000  -0.000000
    12  C    0.000000  -0.000675   0.000814   0.001518  -0.000000   0.000000
    13  N    0.000000  -0.000751   0.000001  -0.029451   0.000000  -0.000000
    14  C   -0.000000  -0.022238   0.001250   0.382915  -0.000000   0.000000
    15  C   -0.000000   0.001212  -0.000007  -0.027456  -0.000000  -0.000000
    16  C   -0.000000  -0.000022   0.000000  -0.000840  -0.000000   0.000000
    17  C   -0.000000  -0.000005  -0.000000   0.001614  -0.000000   0.000000
    18  O   -0.001487  -0.001580  -0.000003   0.000344   0.000000  -0.000000
    19  C    4.713244  -0.000000  -0.000000   0.000000  -0.004204  -0.000016
    20  H   -0.000000   0.626802  -0.004777  -0.004196  -0.000000   0.000000
    21  H   -0.000000  -0.004777   0.648968  -0.000040  -0.000000   0.000000
    22  H    0.000000  -0.004196  -0.000040   0.641972  -0.000000  -0.000000
    23  H   -0.004204  -0.000000  -0.000000  -0.000000   0.604382  -0.003742
    24  H   -0.000016   0.000000   0.000000  -0.000000  -0.003742   0.593673
    25  H    0.000000   0.000000   0.000001  -0.000000  -0.000032  -0.003704
    26  H   -0.000000  -0.000002   0.001669  -0.000000   0.000000  -0.000000
    27  H    0.000000  -0.000006  -0.007292   0.000003  -0.000000   0.000000
    28  H   -0.000000  -0.000706   0.000132   0.000180   0.000000  -0.000000
    29  H   -0.000000   0.000010  -0.000029  -0.000032   0.000000  -0.000000
    30  H    0.000000   0.000015  -0.000002   0.001866   0.000000   0.000000
    31  H    0.000000  -0.000014  -0.000000  -0.004273   0.000000   0.000000
    32  H    0.000000   0.000000   0.000000   0.000092   0.000000  -0.000000
    33  H   -0.000000   0.000000  -0.000000  -0.000005  -0.000000   0.000000
    34  H    0.000000   0.000001   0.000000  -0.000091   0.000000   0.000000
    35  H    0.000000  -0.000000   0.000000   0.000015   0.000000  -0.000000
    36  H    0.380842   0.000001   0.000000   0.000000   0.000064   0.000000
    37  H    0.382751  -0.000000   0.000000  -0.000000   0.000174  -0.000003
    38  H    0.380631   0.000000  -0.000000  -0.000000   0.000075   0.000000
              25         26         27         28         29         30
     1  C    0.000036   0.000000  -0.000000   0.000000   0.000000   0.000001
     2  C    0.001382   0.000000  -0.000000  -0.000000   0.000000  -0.000000
     3  C   -0.024620   0.000000  -0.000000   0.000000   0.000000  -0.000000
     4  C    0.393443  -0.000006   0.000001   0.000000  -0.000000  -0.000004
     5  C   -0.025323   0.000109  -0.000037   0.000000   0.000000  -0.000125
     6  C    0.001243   0.000001  -0.000000  -0.000000   0.000000  -0.000075
     7  C   -0.000019  -0.000019  -0.000012   0.000006   0.000000  -0.000017
     8  O   -0.001086  -0.002082   0.000495  -0.000002  -0.000005   0.000359
     9  C    0.000034  -0.021357  -0.021945  -0.001783   0.001155   0.000068
    10  C    0.000000   0.000556   0.001157  -0.000877   0.000079  -0.003006
    11  C   -0.000003   0.380188   0.382212  -0.026257  -0.022229  -0.000051
    12  C    0.000000  -0.021164  -0.020910   0.380976   0.383208  -0.000005
    13  N    0.000000  -0.001112   0.000917  -0.024454  -0.018134   0.000041
    14  C   -0.000000   0.000150   0.000024  -0.000523   0.001543  -0.020932
    15  C   -0.000000  -0.000089   0.000001  -0.000031  -0.000031   0.382294
    16  C    0.000000  -0.000020   0.000000  -0.000034   0.000031  -0.022528
    17  C   -0.000000  -0.000329   0.000006   0.001814  -0.004438  -0.000869
    18  O    0.000000   0.000000   0.000000   0.000000   0.000000   0.000005
    19  C    0.000000  -0.000000   0.000000  -0.000000  -0.000000   0.000000
    20  H    0.000000  -0.000002  -0.000006  -0.000706   0.000010   0.000015
    21  H    0.000001   0.001669  -0.007292   0.000132  -0.000029  -0.000002
    22  H   -0.000000  -0.000000   0.000003   0.000180  -0.000032   0.001866
    23  H   -0.000032   0.000000  -0.000000   0.000000   0.000000   0.000000
    24  H   -0.003704  -0.000000   0.000000  -0.000000  -0.000000   0.000000
    25  H    0.589548  -0.000001   0.000000  -0.000000  -0.000000   0.000000
    26  H   -0.000001   0.620104  -0.023023   0.001909  -0.002714  -0.000051
    27  H    0.000000  -0.023023   0.632753  -0.002422  -0.001555   0.000001
    28  H   -0.000000   0.001909  -0.002422   0.638894  -0.023149   0.000002
    29  H   -0.000000  -0.002714  -0.001555  -0.023149   0.620870  -0.000000
    30  H    0.000000  -0.000051   0.000001   0.000002  -0.000000   0.628981
    31  H   -0.000000   0.000002  -0.000000   0.000000   0.000001  -0.022998
    32  H   -0.000000  -0.000000   0.000000   0.000001  -0.000001   0.001924
    33  H    0.000000   0.000004  -0.000000   0.000001  -0.000001  -0.004002
    34  H    0.000000  -0.000252  -0.000043  -0.000008  -0.000492   0.000005
    35  H   -0.000000   0.000009   0.000001   0.000011   0.000208  -0.000003
    36  H   -0.000000   0.000000   0.000000   0.000000  -0.000000  -0.000000
    37  H    0.000000  -0.000000  -0.000000   0.000000   0.000000   0.000000
    38  H   -0.000000  -0.000000  -0.000000  -0.000000   0.000000  -0.000000
              31         32         33         34         35         36
     1  C   -0.000000   0.000000  -0.000000   0.000000   0.000000  -0.021091
     2  C    0.000000  -0.000000   0.000000  -0.000000  -0.000000   0.000916
     3  C    0.000000   0.000000  -0.000000  -0.000000  -0.000000  -0.000023
     4  C    0.000000  -0.000000   0.000000   0.000000  -0.000000   0.000002
     5  C   -0.000001  -0.000000   0.000000  -0.000000   0.000000   0.000005
     6  C   -0.000029  -0.000000   0.000000  -0.000000  -0.000000  -0.002300
     7  C    0.000047   0.000000  -0.000000   0.000000   0.000000  -0.000098
     8  O    0.000008  -0.000000   0.000000   0.000001  -0.000000  -0.000000
     9  C    0.000007  -0.000000   0.000000   0.000015  -0.000002  -0.000000
    10  C    0.000148  -0.000004  -0.000017   0.000001  -0.000018  -0.000003
    11  C   -0.000002  -0.000001   0.000003   0.000087  -0.000035  -0.000000
    12  C   -0.000018  -0.000010  -0.000031  -0.005765   0.000631   0.000000
    13  N    0.000969  -0.000236   0.000987  -0.019733  -0.023104  -0.000000
    14  C   -0.019135  -0.000946   0.001540   0.000591   0.001756  -0.000000
    15  C    0.384036  -0.021999  -0.019502  -0.000594   0.001519   0.000000
    16  C   -0.019779   0.384041   0.384550  -0.023221  -0.020589   0.000000
    17  C    0.001663  -0.021588  -0.019224   0.379313   0.383175   0.000000
    18  O   -0.000047   0.000000   0.000000  -0.000000   0.000000  -0.000223
    19  C    0.000000   0.000000  -0.000000   0.000000   0.000000   0.380842
    20  H   -0.000014   0.000000   0.000000   0.000001  -0.000000   0.000001
    21  H   -0.000000   0.000000  -0.000000   0.000000   0.000000   0.000000
    22  H   -0.004273   0.000092  -0.000005  -0.000091   0.000015   0.000000
    23  H    0.000000   0.000000  -0.000000   0.000000   0.000000   0.000064
    24  H    0.000000  -0.000000   0.000000   0.000000  -0.000000   0.000000
    25  H   -0.000000  -0.000000   0.000000   0.000000  -0.000000  -0.000000
    26  H    0.000002  -0.000000   0.000004  -0.000252   0.000009   0.000000
    27  H   -0.000000   0.000000  -0.000000  -0.000043   0.000001   0.000000
    28  H    0.000000   0.000001   0.000001  -0.000008   0.000011   0.000000
    29  H    0.000001  -0.000001  -0.000001  -0.000492   0.000208  -0.000000
    30  H   -0.022998   0.001924  -0.004002   0.000005  -0.000003  -0.000000
    31  H    0.624208  -0.003879  -0.000123  -0.000016  -0.000035  -0.000000
    32  H   -0.003879   0.628700  -0.022822   0.001902  -0.004262  -0.000000
    33  H   -0.000123  -0.022822   0.624585  -0.004076   0.000276   0.000000
    34  H   -0.000016   0.001902  -0.004076   0.654243  -0.027213  -0.000000
    35  H   -0.000035  -0.004262   0.000276  -0.027213   0.629139   0.000000
    36  H   -0.000000  -0.000000   0.000000  -0.000000   0.000000   0.610095
    37  H   -0.000000   0.000000  -0.000000  -0.000000   0.000000  -0.022245
    38  H    0.000000   0.000000  -0.000000   0.000000  -0.000000  -0.018455
              37         38
     1  C   -0.020592  -0.021132
     2  C   -0.005568   0.000459
     3  C    0.000059  -0.000023
     4  C   -0.000000   0.000003
     5  C   -0.000016  -0.000004
     6  C    0.001130  -0.001399
     7  C    0.000016  -0.000039
     8  O    0.000000  -0.000000
     9  C    0.000000  -0.000000
    10  C    0.000000  -0.000003
    11  C    0.000000   0.000000
    12  C   -0.000000  -0.000000
    13  N    0.000000  -0.000000
    14  C    0.000000   0.000000
    15  C   -0.000000   0.000000
    16  C    0.000000  -0.000000
    17  C   -0.000000   0.000000
    18  O    0.000058  -0.000431
    19  C    0.382751   0.380631
    20  H   -0.000000   0.000000
    21  H    0.000000  -0.000000
    22  H   -0.000000  -0.000000
    23  H    0.000174   0.000075
    24  H   -0.000003   0.000000
    25  H    0.000000  -0.000000
    26  H   -0.000000  -0.000000
    27  H   -0.000000  -0.000000
    28  H    0.000000  -0.000000
    29  H    0.000000   0.000000
    30  H    0.000000  -0.000000
    31  H   -0.000000   0.000000
    32  H    0.000000   0.000000
    33  H   -0.000000  -0.000000
    34  H   -0.000000   0.000000
    35  H    0.000000  -0.000000
    36  H   -0.022245  -0.018455
    37  H    0.624473  -0.021589
    38  H   -0.021589   0.603212
 Mulliken charges:
               1
     1  C    0.034853
     2  C   -0.079073
     3  C   -0.048122
     4  C   -0.086150
     5  C    0.130914
     6  C   -0.065544
     7  C    0.184296
     8  O   -0.252674
     9  C    0.081480
    10  C   -0.077266
    11  C   -0.115026
    12  C   -0.014911
    13  N   -0.288168
    14  C    0.049340
    15  C   -0.114000
    16  C   -0.101935
    17  C   -0.017523
    18  O   -0.229409
    19  C   -0.177846
    20  H    0.073499
    21  H    0.055257
    22  H    0.062351
    23  H    0.058199
    24  H    0.067412
    25  H    0.069099
    26  H    0.067520
    27  H    0.059673
    28  H    0.056321
    29  H    0.065704
    30  H    0.059105
    31  H    0.059258
    32  H    0.059088
    33  H    0.057855
    34  H    0.045342
    35  H    0.058524
    36  H    0.072514
    37  H    0.061351
    38  H    0.078692
 Sum of Mulliken charges =  -0.00000
 Mulliken charges with hydrogens summed into heavy atoms:
               1
     1  C    0.034853
     2  C   -0.020875
     3  C    0.019289
     4  C   -0.017051
     5  C    0.130914
     6  C   -0.065544
     7  C    0.184296
     8  O   -0.252674
     9  C    0.136736
    10  C   -0.003766
    11  C    0.012167
    12  C    0.107114
    13  N   -0.288168
    14  C    0.111691
    15  C    0.004363
    16  C    0.015007
    17  C    0.086343
    18  O   -0.229409
    19  C    0.034711
 Electronic spatial extent (au):  <R**2>=           4794.7221
 Charge=             -0.0000 electrons
 Dipole moment (field-independent basis, Debye):
    X=             -0.4738    Y=             -1.7021    Z=             -0.1116  Tot=              1.7703
 Quadrupole moment (field-independent basis, Debye-Ang):
   XX=           -103.1519   YY=           -110.2608   ZZ=           -102.9640
   XY=             -2.2795   XZ=              0.7802   YZ=              2.6782
 Traceless Quadrupole moment (field-independent basis, Debye-Ang):
   XX=              2.3071   YY=             -4.8019   ZZ=              2.4949
   XY=             -2.2795   XZ=              0.7802   YZ=              2.6782
 Octapole moment (field-independent basis, Debye-Ang**2):
  XXX=            -30.0393  YYY=             -9.5709  ZZZ=            -10.4018  XYY=              0.8742
  XXY=            -12.2139  XXZ=             11.4314  XZZ=              5.2009  YZZ=             -0.5354
  YYZ=              5.6835  XYZ=              6.8706
 Hexadecapole moment (field-independent basis, Debye-Ang**3):
 XXXX=          -4183.5911 YYYY=          -1190.8750 ZZZZ=           -677.2754 XXXY=            -56.6971
 XXXZ=              4.3687 YYYX=             14.5438 YYYZ=              2.5080 ZZZX=              4.4340
 ZZZY=            -11.9219 XXYY=           -885.1348 XXZZ=           -828.1099 YYZZ=           -302.4421
 XXYZ=             -4.3598 YYXZ=            -12.3622 ZZXY=             -6.0007
 N-N= 1.509048433627D+03 E-N=-4.913210291390D+03  KE= 8.035770520479D+02
 ******************************Gaussian NBO Version 3.1******************************
             N A T U R A L   A T O M I C   O R B I T A L   A N D
          N A T U R A L   B O N D   O R B I T A L   A N A L Y S I S
 ******************************Gaussian NBO Version 3.1******************************
       /RESON  / : Allow strongly delocalized NBO set
       /NLMO   / : Form Natural Localized Molecular Orbitals
       /NMR /    : Analyze NMR Sheilding Tensor 

 Analyzing the SCF density

 Job title: Title Card Required                                             

 Storage needed:     43472 in NPA,     53775 in NBO,    102144 in NLMO ( 104850000 available)
 GSVD:  LWork=      -13908 too small for GESVD, short by       66690 words or       66690 for optimal perf.


 NATURAL POPULATIONS:  Natural atomic orbital occupancies 
                                                          
   NAO  Atom  No  lang   Type(AO)    Occupancy      Energy
 ----------------------------------------------------------
     1    C    1  S      Cor( 1S)     1.99991     -10.98525
     2    C    1  S      Val( 2S)     1.08140      -0.20168
     3    C    1  px     Val( 2p)     0.95557       0.15570
     4    C    1  py     Val( 2p)     0.95025       0.13595
     5    C    1  pz     Val( 2p)     0.93610       0.03781

     6    C    2  S      Cor( 1S)     1.99995     -10.94882
     7    C    2  S      Val( 2S)     1.08030      -0.18728
     8    C    2  px     Val( 2p)     0.98063       0.14258
     9    C    2  py     Val( 2p)     0.97770       0.13855
    10    C    2  pz     Val( 2p)     1.03416       0.01747

    11    C    3  S      Cor( 1S)     1.99994     -10.96551
    12    C    3  S      Val( 2S)     1.08006      -0.19061
    13    C    3  px     Val( 2p)     0.98087       0.13875
    14    C    3  py     Val( 2p)     0.98284       0.12853
    15    C    3  pz     Val( 2p)     0.96390       0.02715

    16    C    4  S      Cor( 1S)     1.99994     -10.95031
    17    C    4  S      Val( 2S)     1.07710      -0.18722
    18    C    4  px     Val( 2p)     0.97630       0.14355
    19    C    4  py     Val( 2p)     0.99200       0.12644
    20    C    4  pz     Val( 2p)     1.04909       0.01057

    21    C    5  S      Cor( 1S)     1.99978     -11.03329
    22    C    5  S      Val( 2S)     1.05834      -0.21425
    23    C    5  px     Val( 2p)     0.82822       0.15539
    24    C    5  py     Val( 2p)     0.95498       0.12948
    25    C    5  pz     Val( 2p)     0.97227       0.00187

    26    C    6  S      Cor( 1S)     1.99991     -10.96252
    27    C    6  S      Val( 2S)     1.08571      -0.20785
    28    C    6  px     Val( 2p)     0.97941       0.13724
    29    C    6  py     Val( 2p)     0.97451       0.12723
    30    C    6  pz     Val( 2p)     1.08764      -0.00784

    31    C    7  S      Cor( 1S)     1.99996     -11.05783
    32    C    7  S      Val( 2S)     1.07512      -0.24418
    33    C    7  px     Val( 2p)     0.93412       0.10197
    34    C    7  py     Val( 2p)     0.85166       0.17395
    35    C    7  pz     Val( 2p)     0.89721      -0.00004

    36    O    8  S      Cor( 1S)     1.99999     -20.20788
    37    O    8  S      Val( 2S)     1.73228      -1.02208
    38    O    8  px     Val( 2p)     1.26145      -0.10809
    39    O    8  py     Val( 2p)     1.72924      -0.31735
    40    O    8  pz     Val( 2p)     1.53519      -0.23474

    41    C    9  S      Cor( 1S)     1.99988     -11.06266
    42    C    9  S      Val( 2S)     1.08638      -0.24307
    43    C    9  px     Val( 2p)     0.94356       0.05856
    44    C    9  py     Val( 2p)     0.94356       0.07654
    45    C    9  pz     Val( 2p)     0.87433       0.08804

    46    C   10  S      Cor( 1S)     1.99996     -11.00702
    47    C   10  S      Val( 2S)     1.10186      -0.23440
    48    C   10  px     Val( 2p)     0.99734       0.06354
    49    C   10  py     Val( 2p)     0.97728       0.07488
    50    C   10  pz     Val( 2p)     1.01984       0.05706

    51    C   11  S      Cor( 1S)     1.99996     -10.99012
    52    C   11  S      Val( 2S)     1.09090      -0.21147
    53    C   11  px     Val( 2p)     0.96847       0.08072
    54    C   11  py     Val( 2p)     0.99981       0.07428
    55    C   11  pz     Val( 2p)     1.03702       0.06704

    56    C   12  S      Cor( 1S)     1.99994     -11.01703
    57    C   12  S      Val( 2S)     1.07179      -0.20082
    58    C   12  px     Val( 2p)     0.99866       0.07313
    59    C   12  py     Val( 2p)     0.92234       0.10191
    60    C   12  pz     Val( 2p)     0.96867       0.07947

    61    N   13  S      Cor( 1S)     1.99999     -15.24258
    62    N   13  S      Val( 2S)     1.43973      -0.59107
    63    N   13  px     Val( 2p)     1.25976      -0.04197
    64    N   13  py     Val( 2p)     1.40888      -0.09576
    65    N   13  pz     Val( 2p)     1.16936      -0.00061

    66    C   14  S      Cor( 1S)     1.99993     -11.02272
    67    C   14  S      Val( 2S)     1.08380      -0.21244
    68    C   14  px     Val( 2p)     0.86968       0.12130
    69    C   14  py     Val( 2p)     0.99462       0.07507
    70    C   14  pz     Val( 2p)     0.95479       0.09408

    71    C   15  S      Cor( 1S)     1.99997     -10.97733
    72    C   15  S      Val( 2S)     1.08486      -0.19537
    73    C   15  px     Val( 2p)     0.99199       0.08814
    74    C   15  py     Val( 2p)     1.02744       0.08366
    75    C   15  pz     Val( 2p)     0.97951       0.08231

    76    C   16  S      Cor( 1S)     1.99998     -10.97886
    77    C   16  S      Val( 2S)     1.07786      -0.18929
    78    C   16  px     Val( 2p)     0.97841       0.08409
    79    C   16  py     Val( 2p)     1.01387       0.08530
    80    C   16  pz     Val( 2p)     0.99786       0.09415

    81    C   17  S      Cor( 1S)     1.99994     -11.00575
    82    C   17  S      Val( 2S)     1.07428      -0.19327
    83    C   17  px     Val( 2p)     0.99779       0.08402
    84    C   17  py     Val( 2p)     1.00009       0.08597
    85    C   17  pz     Val( 2p)     0.89020       0.10562

    86    O   18  S      Cor( 1S)     1.99999     -20.11391
    87    O   18  S      Val( 2S)     1.80620      -1.06155
    88    O   18  px     Val( 2p)     1.84366      -0.32758
    89    O   18  py     Val( 2p)     1.35814      -0.11662
    90    O   18  pz     Val( 2p)     1.23231      -0.13029

    91    C   19  S      Cor( 1S)     1.99997     -10.97697
    92    C   19  S      Val( 2S)     1.07803      -0.18741
    93    C   19  px     Val( 2p)     1.03183       0.07494
    94    C   19  py     Val( 2p)     0.99734       0.07925
    95    C   19  pz     Val( 2p)     1.03952       0.07223

    96    H   20  S      Val( 1S)     0.94703       0.05367

    97    H   21  S      Val( 1S)     0.98126       0.03290

    98    H   22  S      Val( 1S)     0.97054       0.07066

    99    H   23  S      Val( 1S)     0.96723       0.06591

   100    H   24  S      Val( 1S)     0.96079       0.06018

   101    H   25  S      Val( 1S)     0.95579       0.07141

   102    H   26  S      Val( 1S)     0.95347       0.06784

   103    H   27  S      Val( 1S)     0.96074       0.06063

   104    H   28  S      Val( 1S)     0.97106       0.06020

   105    H   29  S      Val( 1S)     0.96043       0.05866

   106    H   30  S      Val( 1S)     0.96188       0.06985

   107    H   31  S      Val( 1S)     0.96083       0.06999

   108    H   32  S      Val( 1S)     0.96137       0.07220

   109    H   33  S      Val( 1S)     0.96196       0.06871

   110    H   34  S      Val( 1S)     0.98168       0.05734

   111    H   35  S      Val( 1S)     0.96907       0.06964

   112    H   36  S      Val( 1S)     0.94372       0.07894

   113    H   37  S      Val( 1S)     0.95526       0.07293

   114    H   38  S      Val( 1S)     0.93777       0.08342


 Summary of Natural Population Analysis:                  
                                                          
                                       Natural Population 
                Natural  -----------------------------------------------
    Atom  No    Charge         Core      Valence    Rydberg      Total
 -----------------------------------------------------------------------
      C    1    0.07677      1.99991     3.92332    0.00000     5.92323
      C    2   -0.07273      1.99995     4.07278    0.00000     6.07273
      C    3   -0.00761      1.99994     4.00767    0.00000     6.00761
      C    4   -0.09442      1.99994     4.09448    0.00000     6.09442
      C    5    0.18641      1.99978     3.81381    0.00000     5.81359
      C    6   -0.12719      1.99991     4.12728    0.00000     6.12719
      C    7    0.24194      1.99996     3.75810    0.00000     5.75806
      O    8   -0.25816      1.99999     6.25816    0.00000     8.25816
      C    9    0.15229      1.99988     3.84783    0.00000     5.84771
      C   10   -0.09629      1.99996     4.09633    0.00000     6.09629
      C   11   -0.09616      1.99996     4.09620    0.00000     6.09616
      C   12    0.03861      1.99994     3.96145    0.00000     5.96139
      N   13   -0.27772      1.99999     5.27773    0.00000     7.27772
      C   14    0.09719      1.99993     3.90288    0.00000     5.90281
      C   15   -0.08377      1.99997     4.08380    0.00000     6.08377
      C   16   -0.06798      1.99998     4.06801    0.00000     6.06798
      C   17    0.03770      1.99994     3.96236    0.00000     5.96230
      O   18   -0.24030      1.99999     6.24031    0.00000     8.24030
      C   19   -0.14669      1.99997     4.14672    0.00000     6.14669
      H   20    0.05297      0.00000     0.94703    0.00000     0.94703
      H   21    0.01874      0.00000     0.98126    0.00000     0.98126
      H   22    0.02946      0.00000     0.97054    0.00000     0.97054
      H   23    0.03277      0.00000     0.96723    0.00000     0.96723
      H   24    0.03921      0.00000     0.96079    0.00000     0.96079
      H   25    0.04421      0.00000     0.95579    0.00000     0.95579
      H   26    0.04653      0.00000     0.95347    0.00000     0.95347
      H   27    0.03926      0.00000     0.96074    0.00000     0.96074
      H   28    0.02894      0.00000     0.97106    0.00000     0.97106
      H   29    0.03957      0.00000     0.96043    0.00000     0.96043
      H   30    0.03812      0.00000     0.96188    0.00000     0.96188
      H   31    0.03917      0.00000     0.96083    0.00000     0.96083
      H   32    0.03863      0.00000     0.96137    0.00000     0.96137
      H   33    0.03804      0.00000     0.96196    0.00000     0.96196
      H   34    0.01832      0.00000     0.98168    0.00000     0.98168
      H   35    0.03093      0.00000     0.96907    0.00000     0.96907
      H   36    0.05628      0.00000     0.94372    0.00000     0.94372
      H   37    0.04474      0.00000     0.95526    0.00000     0.95526
      H   38    0.06223      0.00000     0.93777    0.00000     0.93777
 =======================================================================
   * Total *   -0.00000     37.99888   100.00112    0.00000   138.00000

                                 Natural Population      
 --------------------------------------------------------
   Core                      37.99888 ( 99.9971% of  38)
   Valence                  100.00112 (100.0011% of 100)
   Natural Minimal Basis    138.00000 (100.0000% of 138)
   Natural Rydberg Basis      0.00000 (  0.0000% of 138)
 --------------------------------------------------------

    Atom  No          Natural Electron Configuration
 ----------------------------------------------------------------------------
      C    1      [core]2S( 1.08)2p( 2.84)
      C    2      [core]2S( 1.08)2p( 2.99)
      C    3      [core]2S( 1.08)2p( 2.93)
      C    4      [core]2S( 1.08)2p( 3.02)
      C    5      [core]2S( 1.06)2p( 2.76)
      C    6      [core]2S( 1.09)2p( 3.04)
      C    7      [core]2S( 1.08)2p( 2.68)
      O    8      [core]2S( 1.73)2p( 4.53)
      C    9      [core]2S( 1.09)2p( 2.76)
      C   10      [core]2S( 1.10)2p( 2.99)
      C   11      [core]2S( 1.09)2p( 3.01)
      C   12      [core]2S( 1.07)2p( 2.89)
      N   13      [core]2S( 1.44)2p( 3.84)
      C   14      [core]2S( 1.08)2p( 2.82)
      C   15      [core]2S( 1.08)2p( 3.00)
      C   16      [core]2S( 1.08)2p( 2.99)
      C   17      [core]2S( 1.07)2p( 2.89)
      O   18      [core]2S( 1.81)2p( 4.43)
      C   19      [core]2S( 1.08)2p( 3.07)
      H   20            1S( 0.95)
      H   21            1S( 0.98)
      H   22            1S( 0.97)
      H   23            1S( 0.97)
      H   24            1S( 0.96)
      H   25            1S( 0.96)
      H   26            1S( 0.95)
      H   27            1S( 0.96)
      H   28            1S( 0.97)
      H   29            1S( 0.96)
      H   30            1S( 0.96)
      H   31            1S( 0.96)
      H   32            1S( 0.96)
      H   33            1S( 0.96)
      H   34            1S( 0.98)
      H   35            1S( 0.97)
      H   36            1S( 0.94)
      H   37            1S( 0.96)
      H   38            1S( 0.94)


 NATURAL BOND ORBITAL ANALYSIS:

                       Occupancies       Lewis Structure    Low   High
           Occ.    -------------------  -----------------   occ   occ
  Cycle   Thresh.   Lewis   Non-Lewis     CR  BD  3C  LP    (L)   (NL)   Dev
 =============================================================================
   1(1)    1.90   134.40932   3.59068     19  43   0   7     3      3    0.45
   2(2)    1.90   134.40932   3.59068     19  43   0   7     3      3    0.45
   3(1)    1.80   134.34339   3.65661     19  42   0   8     3      3    0.45
   4(2)    1.80   134.34339   3.65661     19  42   0   8     3      3    0.45
   5(1)    1.70   134.34339   3.65661     19  42   0   8     3      3    0.45
   6(2)    1.70   134.34339   3.65661     19  42   0   8     3      3    0.45
   7(1)    1.60   135.51720   2.48280     19  44   0   6     1      3    0.43
   8(2)    1.60   136.13119   1.86881     19  45   0   5     0      3    0.43
   9(3)    1.60   136.09501   1.90499     19  45   0   5     0      3    0.45
  10(4)    1.60   136.13119   1.86881     19  45   0   5     0      3    0.43
  11(1)    1.50   136.13119   1.86881     19  45   0   5     0      3    0.43
  12(2)    1.50   136.09501   1.90499     19  45   0   5     0      3    0.45
  13(3)    1.50   136.13119   1.86881     19  45   0   5     0      3    0.43
  14(1)    1.60   136.13119   1.86881     19  45   0   5     0      3    0.43
 -----------------------------------------------------------------------------

 Structure accepted: RESONANCE keyword permits strongly delocalized structure

 --------------------------------------------------------
   Core                     37.99888 ( 99.997% of  38)
   Valence Lewis            98.13231 ( 98.132% of 100)
  ==================       ============================
   Total Lewis             136.13119 ( 98.646% of 138)
  -----------------------------------------------------
   Valence non-Lewis         1.86881 (  1.354% of 138)
   Rydberg non-Lewis         0.00000 (  0.000% of 138)
  ==================       ============================
   Total non-Lewis           1.86881 (  1.354% of 138)
 --------------------------------------------------------


       (Occupancy)   Bond orbital/ Coefficients/ Hybrids
 ---------------------------------------------------------------------------------
     1. (1.98536) BD ( 1) C   1 - C   2  
                ( 50.00%)   0.7071* C   1 s( 33.74%)p 1.96( 66.26%)
                                            0.0000  0.5809 -0.5565 -0.5157  0.2949
                ( 50.00%)   0.7071* C   2 s( 34.46%)p 1.90( 65.54%)
                                            0.0001  0.5870  0.5426  0.5141 -0.3110
     2. (1.65729) BD ( 2) C   1 - C   2  
                ( 45.66%)   0.6757* C   1 s(  0.00%)p 1.00(100.00%)
                                           -0.0000  0.0013  0.1978  0.3182  0.9272
                ( 54.34%)   0.7371* C   2 s(  0.00%)p 1.00(100.00%)
                                            0.0000  0.0029  0.2108  0.3307  0.9199
     3. (1.98112) BD ( 1) C   1 - C   6  
                ( 49.44%)   0.7031* C   1 s( 34.60%)p 1.89( 65.40%)
                                            0.0001  0.5883  0.7724 -0.2221 -0.0894
                ( 50.56%)   0.7111* C   6 s( 35.53%)p 1.81( 64.47%)
                                            0.0000  0.5961 -0.7537  0.2673  0.0717
     4. (1.98742) BD ( 1) C   1 - C  19  
                ( 50.16%)   0.7082* C   1 s( 31.65%)p 2.16( 68.35%)
                                           -0.0000  0.5626 -0.2335  0.7639 -0.2131
                ( 49.84%)   0.7060* C  19 s( 25.57%)p 2.91( 74.43%)
                                            0.0001  0.5056  0.2639 -0.7935  0.2125
     5. (1.98976) BD ( 1) C   2 - C   3  
                ( 49.57%)   0.7041* C   2 s( 34.19%)p 1.92( 65.81%)
                                            0.0001  0.5847  0.2071 -0.7525  0.2212
                ( 50.43%)   0.7102* C   3 s( 34.32%)p 1.91( 65.68%)
                                            0.0000  0.5859 -0.2212  0.7481 -0.2194
     6. (1.98879) BD ( 1) C   2 - H  23  
                ( 51.66%)   0.7188* C   2 s( 31.34%)p 2.19( 68.66%)
                                           -0.0000  0.5599 -0.7863  0.2452  0.0903
                ( 48.34%)   0.6953* H  23 s(100.00%)
                                            1.0000
[...]
    8       0.2271       -0.2979       0.5250        -0.8121       1.0392
   13       0.7794       -0.2807       1.0601        -0.6964       1.4758
   15     -10.8160      -10.9210       0.1049       -11.5577       0.7417
   16     -10.5244      -10.9121       0.3877       -11.2640       0.7396
   17    -117.3304     -128.3005      10.9702      -126.7798       9.4494
   18     -28.4662      -52.4705      24.0043       -53.3861      24.9200
   20      -1.2830       -1.4417       0.1587        -1.2689      -0.0142
   23      -0.1942       -0.3270       0.1327        -1.1266       0.9323
   24      -0.0076       -0.2357       0.2281        -1.0465       1.0389
   43      -0.4188       -1.8330       1.4142        -1.3627       0.9439
   45      -0.2869       -1.6306       1.3437        -1.2610       0.9742
   63     271.9235       -0.0059     271.9294        -0.0059     271.9294
   68     -35.3612      -70.5349      35.1737       -70.4229      35.0616
   69    -422.0613     -458.7936      36.7324      -461.7267      39.6655
 Sum     -354.1714     -739.4564     385.2850      -744.7001     390.5288

 Contributions to Isotropic shielding for atom   19 (   218.2603 ppm):
                         Standard Origin              Atomic Origin
 NLMO      Total    Paramagnetic  Diamagnetic   Paramagnetic  Diamagnetic
    1      -1.9649       -1.3452      -0.6198        -2.4487       0.4838
    2      -0.9160       -0.6022      -0.3138        -2.5683       1.6523
    3      -1.1123       -1.5231       0.4108        -1.4109       0.2985
    4       3.9798      -11.6300      15.6099        -2.9724       6.9522
    6      -0.6171       -1.3939       0.7768        -1.6532       1.0360
    8       0.8067       -0.2342       1.0409        -0.3769       1.1836
   15      -0.4130        0.1149      -0.5279        -1.2568       0.8438
   17      -0.4189       -0.2660      -0.1529        -1.1570       0.7382
   18       0.2813        0.2661       0.0153        -1.2022       1.4835
   43       7.1668       -4.0410      11.2078        -4.2430      11.4098
   44       4.0409        5.3282      -1.2873        -7.1466      11.1875
   45       6.8675       -5.0335      11.9010        -4.5983      11.4658
   64     200.0791       -0.0039     200.0830         0.0036     200.0755
 Sum      217.7798      -20.3639     238.1436       -31.0307     248.8105

 Contributions to Isotropic shielding for atom   20 (    30.9033 ppm):
                         Standard Origin              Atomic Origin
 NLMO      Total    Paramagnetic  Diamagnetic   Paramagnetic  Diamagnetic
   13       0.1219       -0.3643       0.4862        -0.9069       1.0288
   16       1.7470        1.8228      -0.0758         0.7643       0.9827
   17      -0.6159       -0.6400       0.0241        -1.4209       0.8050
   18       0.2176       -0.1610       0.3786        -1.3119       1.5295
   20       1.2378        1.2108       0.0270         0.3860       0.8518
   22       0.0902       -0.3679       0.4581        -0.9399       1.0301
   23       1.2199        1.5729      -0.3530         0.1619       1.0580
   24      25.7496       -0.1671      25.9166         0.3344      25.4151
   28       0.1891       -0.7803       0.9694        -0.8151       1.0043
   29      -0.2290       -1.4796       1.2505        -0.8954       0.6663
 Sum       29.7283        0.6465      29.0818        -4.6434      34.3717

 Contributions to Isotropic shielding for atom   21 (    31.1064 ppm):
                         Standard Origin              Atomic Origin
 NLMO      Total    Paramagnetic  Diamagnetic   Paramagnetic  Diamagnetic
   13      -0.0698       -0.4853       0.4156        -1.3364       1.2666
   19       0.8837        0.5933       0.2904        -0.5429       1.4266
   21       0.4553        1.2426      -0.7873        -0.7483       1.2036
   22      26.4164        0.2565      26.1599         0.8279      25.5885
   24       0.0908       -0.2058       0.2966        -1.0287       1.1195
   27      -0.1107       -1.3305       1.2198        -1.2679       1.1571
   65       0.7321        0.0980       0.6341         1.0487      -0.3166
 Sum       28.3977        0.1688      28.2290        -3.0475      31.4453

 Contributions to Isotropic shielding for atom   22 (    30.6754 ppm):
                         Standard Origin              Atomic Origin
 NLMO      Total    Paramagnetic  Diamagnetic   Paramagnetic  Diamagnetic
   17      -0.1551       -0.3620       0.2069        -1.0349       0.8798
   18       0.0380       -0.3588       0.3968        -1.3714       1.4094
   23       1.0950        0.1095       0.9855         0.0313       1.0637
   24       0.1318        0.1534      -0.0215        -0.9018       1.0336
   31       0.5320        1.6097      -1.0777        -0.8885       1.4205
   34      26.1859       -0.0017      26.1876         0.6526      25.5334
   37       0.0489       -0.3523       0.4011        -0.9598       1.0087
   38       0.1300       -0.8744       1.0044        -0.7156       0.8456
   39      -0.0122       -1.0602       1.0480        -0.8148       0.8026
 Sum       27.9943       -1.1368      29.1311        -6.0029      33.9972

 Contributions to Isotropic shielding for atom   23 (    25.8761 ppm):
                         Standard Origin              Atomic Origin
 NLMO      Total    Paramagnetic  Diamagnetic   Paramagnetic  Diamagnetic
    1      -1.5046       -2.6234       1.1188        -2.0849       0.5803
    2       0.6859        1.5456      -0.8597        -2.6657       3.3517
    4      -0.6805        0.6690      -1.3495        -1.7556       1.0751
    5      -1.9760       -1.3819      -0.5941        -2.6809       0.7049
    6      27.0149        0.9606      26.0544         1.5535      25.4614
    8       1.0383        0.2512       0.7870         0.1663       0.8720
    9      -0.0888       -0.0536      -0.0352        -1.1930       1.1043
   13       0.6073        0.8146      -0.2074        -0.6490       1.2563
   44      -0.1115       -1.4827       1.3711        -0.9013       0.7898
 Sum       24.9850       -1.3005      26.2855       -10.2107      35.1957

 Contributions to Isotropic shielding for atom   24 (    25.3105 ppm):
                         Standard Origin              Atomic Origin
 NLMO      Total    Paramagnetic  Diamagnetic   Paramagnetic  Diamagnetic
    2       1.1052        0.6354       0.4699         0.0424       1.0628
    5      -2.0744       -1.8560      -0.2185        -2.8137       0.7392
    6      -0.0971       -0.0860      -0.0112        -1.2259       1.1288
    7      -1.8189       -2.7225       0.9036        -2.5389       0.7200
    8       0.6662        1.1861      -0.5198        -2.1588       2.8250
    9      26.8690        1.1184      25.7507         1.5835      25.2856
   11      -0.1120        0.5897      -0.7017        -1.2189       1.1069
   13       0.4561        0.7239      -0.2678        -0.9212       1.3773
 Sum       24.9941       -0.4110      25.4051        -9.2515      34.2456

 Contributions to Isotropic shielding for atom   25 (    25.7360 ppm):
                         Standard Origin              Atomic Origin
 NLMO      Total    Paramagnetic  Diamagnetic   Paramagnetic  Diamagnetic
    2       1.2050       -0.4778       1.6828        -0.0284       1.2334
    7      -1.7678       -1.0135      -0.7543        -2.4461       0.6782
    8       0.3680       -0.1758       0.5438        -3.0298       3.3978
    9      -0.0532       -1.0630       1.0097        -1.1493       1.0961
   10      -0.8825       -2.4863       1.6038        -1.4406       0.5581
   11      26.5184        1.0947      25.4237         1.3002      25.2182
   14      -0.4397        0.2357      -0.6754        -2.0091       1.5694
   65      -0.2389       -0.4081       0.1692         0.7703      -1.0092
 Sum       24.7093       -4.2941      29.0034        -8.0327      32.7419

 Contributions to Isotropic shielding for atom   26 (    31.5807 ppm):
                         Standard Origin              Atomic Origin
 NLMO      Total    Paramagnetic  Diamagnetic   Paramagnetic  Diamagnetic
   19      -0.0909        0.2626      -0.3535        -1.9600       1.8691
   21       1.6923       -0.4515       2.1439         0.8686       0.8237
   25       1.0983        1.2468      -0.1484         0.1448       0.9535
   26      25.9538        0.1824      25.7714         0.4491      25.5047
   27       1.9216        2.0190      -0.0974         0.0951       1.8265
   41      -0.2735       -1.2207       0.9473        -0.5350       0.2615
   65      -0.4403       -0.1521      -0.2882         0.6187      -1.0590
 Sum       29.8614        1.8864      27.9750        -0.3187      30.1801

 Contributions to Isotropic shielding for atom   27 (    31.7816 ppm):
                         Standard Origin              Atomic Origin
 NLMO      Total    Paramagnetic  Diamagnetic   Paramagnetic  Diamagnetic
   19       0.0116        0.2895      -0.2779        -1.0341       1.0458
   21       1.3880        0.3722       1.0158         0.4743       0.9137
   22      -0.2322        0.3082      -0.5404        -1.3930       1.1609
   25       0.8817        2.2007      -1.3190        -0.1792       1.0609
   26       2.0457        1.7068       0.3389         0.1292       1.9165
   27      26.2307       -0.1660      26.3967         0.4697      25.7609
 Sum       30.3256        4.7114      25.6141        -1.5331      31.8587

 Contributions to Isotropic shielding for atom   28 (    31.7346 ppm):
                         Standard Origin              Atomic Origin
 NLMO      Total    Paramagnetic  Diamagnetic   Paramagnetic  Diamagnetic
   20      -0.1112        0.2947      -0.4059        -1.0260       0.9148
   23      -0.1025        0.2972      -0.3998        -1.0082       0.9057
   25       1.2165       -0.2857       1.5022         0.3465       0.8700
   28       1.2888        0.0512       1.2376        -0.0567       1.3455
   29      26.3991        0.3124      26.0867         0.6521      25.7470
   30       1.4875        2.3819      -0.8944        -0.4283       1.9157
 Sum       30.1781        3.0517      27.1264        -1.5206      31.6987

 Contributions to Isotropic shielding for atom   29 (    31.7625 ppm):
                         Standard Origin              Atomic Origin
 NLMO      Total    Paramagnetic  Diamagnetic   Paramagnetic  Diamagnetic
   26       0.2061        0.5051      -0.2990        -0.8057       1.0118
   28       0.6373        1.2132      -0.5759        -0.4657       1.1030
   29       1.7216        2.1412      -0.4196        -0.1272       1.8487
   30      26.3110        0.0658      26.2452         0.7847      25.5263
   32      -0.3527        0.4608      -0.8136        -1.5127       1.1599
 Sum       28.5233        4.3862      24.1371        -2.1265      30.6497

 Contributions to Isotropic shielding for atom   30 (    32.5410 ppm):
                         Standard Origin              Atomic Origin
 NLMO      Total    Paramagnetic  Diamagnetic   Paramagnetic  Diamagnetic
   13      -0.0829       -0.5028       0.4199        -1.2009       1.1180
   32       0.1837       -0.8900       1.0737        -0.6259       0.8097
   33       1.5459       -0.3460       1.8919         0.9667       0.5792
   35       0.8431        1.3911      -0.5480         0.0237       0.8194
   36      26.1062        0.3258      25.7803         0.3553      25.7509
   37       2.0783        0.2926       1.7857         0.2839       1.7944
   38       0.2592       -1.1242       1.3834        -0.4428       0.7019
   40       0.1088       -1.3087       1.4175        -0.8718       0.9806
 Sum       31.0423       -2.1620      33.2043        -1.5119      32.5542

 Contributions to Isotropic shielding for atom   31 (    32.9963 ppm):
                         Standard Origin              Atomic Origin
 NLMO      Total    Paramagnetic  Diamagnetic   Paramagnetic  Diamagnetic
   13      -0.1027       -0.3434       0.2407        -1.0662       0.9636
   18      -0.3597       -0.3219      -0.0378        -1.2445       0.8848
   33       1.4994        0.2573       1.2421         0.8381       0.6613
   34       0.0790       -0.2493       0.3282        -0.9567       1.0357
   35       0.6033        2.0191      -1.4158        -0.2029       0.8062
   36       2.2257        0.0980       2.1277         0.4638       1.7619
   37      26.1861        0.2062      25.9800         0.4514      25.7347
   39       0.1826       -1.1232       1.3058        -0.8729       1.0555
 Sum       30.3137        0.5428      29.7708        -2.5900      32.9036

 Contributions to Isotropic shielding for atom   32 (    32.0763 ppm):
                         Standard Origin              Atomic Origin
 NLMO      Total    Paramagnetic  Diamagnetic   Paramagnetic  Diamagnetic
   31      -0.1171        0.1780      -0.2952        -1.1901       1.0730
   35       1.4285       -0.8362       2.2647         0.6821       0.7464
   38       0.8658        1.1356      -0.2698         0.1877       0.6781
   39      26.2100        0.0163      26.1938         0.4831      25.7270
   40       1.9262        2.3502      -0.4241         0.1452       1.7810
   42       0.0715       -0.2182       0.2897        -0.9794       1.0509
 Sum       30.3849        2.6258      27.7591        -0.6716      31.0565

 Contributions to Isotropic shielding for atom   33 (    32.4205 ppm):
                         Standard Origin              Atomic Origin
 NLMO      Total    Paramagnetic  Diamagnetic   Paramagnetic  Diamagnetic
   31      -0.1226        0.0649      -0.1875        -1.0401       0.9175
   35       1.4957       -0.8938       2.3895         0.7379       0.7579
   36       0.0672        0.6853      -0.6181        -1.0151       1.0823
   38       0.8567        1.0587      -0.2021         0.1871       0.6695
   39       1.9215        2.4210      -0.4995         0.1674       1.7541
   40      26.2523        0.1522      26.1001         0.4731      25.7792
   41       0.0617       -0.3225       0.3841        -1.0296       1.0913
 Sum       30.5325        3.1660      27.3665        -1.5193      32.0518

 Contributions to Isotropic shielding for atom   34 (    32.0302 ppm):
                         Standard Origin              Atomic Origin
 NLMO      Total    Paramagnetic  Diamagnetic   Paramagnetic  Diamagnetic
   28      -0.3020        0.2531      -0.5551        -1.2897       0.9877
   32       1.4094       -1.3153       2.7247         0.8015       0.6079
   33      -0.1909        0.2436      -0.4344        -1.0425       0.8516
   38       0.9248       -0.4227       1.3475         0.0257       0.8991
   41      26.6388        0.4916      26.1471         0.6925      25.9462
   42       1.6024        2.2697      -0.6673        -0.2562       1.8586
 Sum       30.0824        1.5199      28.5625        -1.0688      31.1512

 Contributions to Isotropic shielding for atom   35 (    31.5132 ppm):
                         Standard Origin              Atomic Origin
 NLMO      Total    Paramagnetic  Diamagnetic   Paramagnetic  Diamagnetic
   32       0.9726        0.9294       0.0432        -0.2384       1.2110
   33      -0.1504        0.2645      -0.4149        -1.0321       0.8817
   38       0.4220        1.5158      -1.0938        -0.4694       0.8914
   39       0.0841        0.3389      -0.2548        -0.9865       1.0706
   41       1.6066        1.5564       0.0502        -0.1165       1.7231
   42      26.4140        0.1109      26.3032         0.7994      25.6146
 Sum       29.3489        4.7159      24.6331        -2.0436      31.3925

 Contributions to Isotropic shielding for atom   36 (    31.2860 ppm):
                         Standard Origin              Atomic Origin
 NLMO      Total    Paramagnetic  Diamagnetic   Paramagnetic  Diamagnetic
    2      -0.7648       -0.3727      -0.3921        -1.6222       0.8575
    4       1.8311       -0.7635       2.5947         0.9715       0.8596
    8       0.5350       -0.1230       0.6579        -0.5665       1.1015
   15      -0.3342        0.2872      -0.6215        -1.2352       0.9009
   18       0.1069        0.3198      -0.2129        -1.2398       1.3467
   43      25.7869        0.2308      25.5561         0.3553      25.4316
   44       1.8061        2.5916      -0.7855        -0.0950       1.9012
   45       2.1991        0.4401       1.7590         0.3606       1.8385
 Sum       31.1661        2.6103      28.5558        -3.0713      34.2374

 Contributions to Isotropic shielding for atom   37 (    31.0094 ppm):
                         Standard Origin              Atomic Origin
 NLMO      Total    Paramagnetic  Diamagnetic   Paramagnetic  Diamagnetic
    1      -1.0107        0.3039      -1.3146        -1.9133       0.9025
    2      -0.7713        0.1706      -0.9420        -2.3740       1.6027
    4       1.0666        0.6918       0.3748         0.3013       0.7653
    6      -0.0214       -1.1986       1.1772        -0.9603       0.9388
   18       0.0855        0.1142      -0.0286        -0.9322       1.0177
   43       2.0228        2.3322      -0.3093         0.0422       1.9806
   44      26.2574       -0.1450      26.4025         0.5237      25.7338
   45       2.1286        2.2619      -0.1333         0.1636       1.9651
 Sum       29.7575        4.5309      25.2266        -5.1489      34.9064

 Contributions to Isotropic shielding for atom   38 (    30.7257 ppm):
                         Standard Origin              Atomic Origin
 NLMO      Total    Paramagnetic  Diamagnetic   Paramagnetic  Diamagnetic
    2      -0.8523       -0.4817      -0.3707        -1.8159       0.9636
    4       1.8982       -0.7667       2.6650         1.0218       0.8764
    8       0.5139       -0.1916       0.7054        -0.5540       1.0679
   15      -0.3167        0.1595      -0.4761        -1.2003       0.8837
   18       0.1670        0.1061       0.0609        -1.1206       1.2876
   43       2.2000        0.5277       1.6724         0.4055       1.7946
   44       1.7698        2.5390      -0.7691        -0.0870       1.8569
   45      25.6451        0.2619      25.3832         0.3606      25.2845
 Sum       31.0251        2.1541      28.8710        -2.9901      34.0152
 
 1\1\GINC-GNOSIE-MM\SP\RHF\STO-3G\C16H19N1O2\MBENIDD\18-May-2026\0\\# n
 mr=giao hf/sto-3g pop=nbo\\Title Card Required\\0,1\C,0,0.,0.,0.\C,0,1
 .4071,0.,0.\C,0,2.1261,1.1946,0.\C,0,1.4488,2.4087,-0.0096\C,0,0.0546,
 2.4279,-0.0279\C,0,-0.6771,1.2363,0.002\C,0,-2.1489,1.3478,0.0884\O,0,
 -0.5166,3.6701,-0.0243\C,0,-1.7743,3.7072,-0.7073\C,0,-2.7761,2.6986,-
 0.1621\C,0,-2.2853,5.1532,-0.6201\C,0,-3.7801,5.2354,-0.3199\N,0,-4.15
 39,4.5373,0.9087\C,0,-3.5441,3.1955,1.067\C,0,-2.7588,3.259,2.3776\C,0
 ,-3.5318,4.286,3.1794\C,0,-3.8806,5.318,2.1244\O,0,-2.8487,0.377,0.369
 7\C,0,-0.7094,-1.3269,0.0169\H,0,-3.5135,2.5307,-0.9622\H,0,-1.5778,3.
 4815,-1.766\H,0,-4.3822,2.5038,1.2345\H,0,1.9559,-0.9406,0.0084\H,0,3.
 2131,1.1766,0.0089\H,0,2.0058,3.3421,-0.008\H,0,-1.7191,5.7177,0.1314\
 H,0,-2.0864,5.6581,-1.5739\H,0,-4.3406,4.7984,-1.1561\H,0,-4.0976,6.28
 46,-0.2752\H,0,-1.7339,3.6134,2.2294\H,0,-2.7188,2.2923,2.8888\H,0,-4.
 4407,3.8384,3.5994\H,0,-2.9409,4.7057,3.9985\H,0,-3.0294,5.9974,1.9964
 \H,0,-4.7505,5.9152,2.4148\H,0,-1.4372,-1.3863,-0.7984\H,0,-0.0083,-2.
 1564,-0.128\H,0,-1.2051,-1.4834,0.9799\\Version=EM64L-G16RevB.01\State
 =1-A\HF=-811.0515327\RMSD=7.899e-09\Dipole=0.5347485,0.3316316,-0.2986
 076\Quadrupole=-3.0934105,0.6322137,2.4611968,-2.8995155,0.5095982,0.2
 401492\PG=C01 [X(C16H19N1O2)]\\@


 AS FAR AS THE LAWS OF MATHEMATICS REFER TO REALITY,
 THEY ARE NOT CERTAIN; AND AS FAR AS THEY ARE CERTAIN,
 THEY DO NOT REFER TO REALITY.

                                         -- ALBERT EINSTEIN
 Job cpu time:       0 days  0 hours  3 minutes 42.7 seconds.
 Elapsed time:       0 days  0 hours  2 minutes  0.4 seconds.
 File lengths (MBytes):  RWF=     14 Int=      0 D2E=      0 Chk=      2 Scr=      1
 Normal termination of Gaussian 16 at Mon May 18 11:45:41 2026.
