 Entering Gaussian System, Link 0=g16
 Input=3_elaeocarpine_c_3.gjf
 Output=3_elaeocarpine_c_3.log
 Initial command:
 /opt/gaussian/g16/l1.exe "/home/mbenidd/Bureau/Elaeocarpines/HF_NMR/3/3_elaeocarpine_c3/Gau-10009.inp" -scrdir="/home/mbenidd/Bureau/Elaeocarpines/HF_NMR/3/3_elaeocarpine_c3/"
 Entering Link 1 = /opt/gaussian/g16/l1.exe PID=     10011.
  
 Copyright (c) 1988-2017, Gaussian, Inc.  All Rights Reserved.
  
 This is part of the Gaussian(R) 16 program.  It is based on
 the Gaussian(R) 09 system (copyright 2009, Gaussian, Inc.),
 the Gaussian(R) 03 system (copyright 2003, Gaussian, Inc.),
 the Gaussian(R) 98 system (copyright 1998, Gaussian, Inc.),
 the Gaussian(R) 94 system (copyright 1995, Gaussian, Inc.),
 the Gaussian 92(TM) system (copyright 1992, Gaussian, Inc.),
 the Gaussian 90(TM) system (copyright 1990, Gaussian, Inc.),
 the Gaussian 88(TM) system (copyright 1988, Gaussian, Inc.),
 the Gaussian 86(TM) system (copyright 1986, Carnegie Mellon
 University), and the Gaussian 82(TM) system (copyright 1983,
 Carnegie Mellon University). Gaussian is a federally registered
 trademark of Gaussian, Inc.
  
 This software contains proprietary and confidential information,
 including trade secrets, belonging to Gaussian, Inc.
  
 This software is provided under written license and may be
 used, copied, transmitted, or stored only in accord with that
 written license.
  
 The following legend is applicable only to US Government
 contracts under FAR:
  
                    RESTRICTED RIGHTS LEGEND
  
 Use, reproduction and disclosure by the US Government is
 subject to restrictions as set forth in subparagraphs (a)
 and (c) of the Commercial Computer Software - Restricted
 Rights clause in FAR 52.227-19.
  
 Gaussian, Inc.
 340 Quinnipiac St., Bldg. 40, Wallingford CT 06492
  
  
 ---------------------------------------------------------------
 Warning -- This program may not be used in any manner that
 competes with the business of Gaussian, Inc. or will provide
 assistance to any competitor of Gaussian, Inc.  The licensee
 of this program is prohibited from giving any competitor of
 Gaussian, Inc. access to this program.  By using this program,
 the user acknowledges that Gaussian, Inc. is engaged in the
 business of creating and licensing software in the field of
 computational chemistry and represents and warrants to the
 licensee that it is not a competitor of Gaussian, Inc. and that
 it will not use this program in any manner prohibited above.
 ---------------------------------------------------------------
  

 Cite this work as:
 Gaussian 16, Revision B.01,
 M. J. Frisch, G. W. Trucks, H. B. Schlegel, G. E. Scuseria, 
 M. A. Robb, J. R. Cheeseman, G. Scalmani, V. Barone, 
 G. A. Petersson, H. Nakatsuji, X. Li, M. Caricato, A. V. Marenich, 
 J. Bloino, B. G. Janesko, R. Gomperts, B. Mennucci, H. P. Hratchian, 
 J. V. Ortiz, A. F. Izmaylov, J. L. Sonnenberg, D. Williams-Young, 
 F. Ding, F. Lipparini, F. Egidi, J. Goings, B. Peng, A. Petrone, 
 T. Henderson, D. Ranasinghe, V. G. Zakrzewski, J. Gao, N. Rega, 
 G. Zheng, W. Liang, M. Hada, M. Ehara, K. Toyota, R. Fukuda, 
 J. Hasegawa, M. Ishida, T. Nakajima, Y. Honda, O. Kitao, H. Nakai, 
 T. Vreven, K. Throssell, J. A. Montgomery, Jr., J. E. Peralta, 
 F. Ogliaro, M. J. Bearpark, J. J. Heyd, E. N. Brothers, K. N. Kudin, 
 V. N. Staroverov, T. A. Keith, R. Kobayashi, J. Normand, 
 K. Raghavachari, A. P. Rendell, J. C. Burant, S. S. Iyengar, 
 J. Tomasi, M. Cossi, J. M. Millam, M. Klene, C. Adamo, R. Cammi, 
 J. W. Ochterski, R. L. Martin, K. Morokuma, O. Farkas, 
 J. B. Foresman, and D. J. Fox, Gaussian, Inc., Wallingford CT, 2016.
 
 ******************************************
 Gaussian 16:  EM64L-G16RevB.01 20-Dec-2017
                18-May-2026 
 ******************************************
 %nprocshared=4
 Will use up to    4 processors via shared memory.
 ----------------------------
 # nmr=giao hf/sto-3g pop=nbo
 ----------------------------
 1/38=1,172=1/1;
 2/12=2,17=6,18=5,40=1/2;
 3/6=3,11=9,25=1,30=1/1,2,3,8;
 4//1;
 5/5=2,38=5/2;
 8/6=1,10=90,11=11/1;
 10/13=100,45=16/2;
 6/7=2,8=2,9=2,10=2,28=1,40=1,64=1/1,7;
 99/9=1/99;
 -------------------
 Title Card Required
 -------------------
 Symbolic Z-matrix:
 Charge =  0 Multiplicity = 1
 C                     0.        0.        0. 
 C                     1.4074    0.        0. 
 C                     2.1262    1.1942    0. 
 C                     1.4484    2.4077    0.0148 
 C                     0.0535    2.4272    0.03 
 C                    -0.6793    1.2362   -0.0092 
 C                    -2.1545    1.3451   -0.1247 
 O                    -0.5124    3.6717    0.0767 
 C                    -1.7973    3.6867    0.7027 
 C                    -2.7833    2.718     0.0429 
 C                    -1.6842    3.5262    2.2303 
 C                    -3.0566    3.5411    2.8975 
 N                    -3.9101    2.5378    2.2718 
 C                    -4.0957    2.7784    0.8339 
 C                    -5.2207    1.8091    0.5048 
 C                    -6.1273    1.8942    1.7318 
 C                    -5.259     2.4865    2.8415 
 O                    -2.8096    0.3684   -0.4783 
 C                    -0.7072   -1.3283   -0.0092 
 H                    -2.9692    3.0609   -0.985 
 H                    -2.1796    4.7019    0.5265 
 H                    -4.502     3.7943    0.6977 
 H                     1.9555   -0.9409   -0.0062 
 H                     3.2131    1.1764   -0.0059 
 H                     2.0051    3.3411    0.0268 
 H                    -1.164     2.5955    2.4884 
 H                    -1.0602    4.3316    2.6367 
 H                    -2.9356    3.3195    3.9642 
 H                    -3.4949    4.5443    2.8184 
 H                    -4.8857    0.7738    0.4088 
 H                    -5.7505    2.0809   -0.4133 
 H                    -6.9846    2.5465    1.5311 
 H                    -6.5109    0.9041    1.9998 
 H                    -5.6347    3.4846    3.0995 
 H                    -5.2836    1.8676    3.7439 
 H                    -1.4647   -1.3696    0.7799 
 H                    -0.0107   -2.1517    0.185 
 H                    -1.1661   -1.511    -0.9857 
 
                          Input orientation:                          
 ---------------------------------------------------------------------
 Center     Atomic      Atomic             Coordinates (Angstroms)
 Number     Number       Type             X           Y           Z
 ---------------------------------------------------------------------
      1          6           0        0.000000    0.000000    0.000000
      2          6           0        1.407400    0.000000    0.000000
      3          6           0        2.126200    1.194200    0.000000
      4          6           0        1.448400    2.407700    0.014800
      5          6           0        0.053500    2.427200    0.030000
      6          6           0       -0.679300    1.236200   -0.009200
      7          6           0       -2.154500    1.345100   -0.124700
      8          8           0       -0.512400    3.671700    0.076700
      9          6           0       -1.797300    3.686700    0.702700
     10          6           0       -2.783300    2.718000    0.042900
     11          6           0       -1.684200    3.526200    2.230300
     12          6           0       -3.056600    3.541100    2.897500
     13          7           0       -3.910100    2.537800    2.271800
     14          6           0       -4.095700    2.778400    0.833900
     15          6           0       -5.220700    1.809100    0.504800
     16          6           0       -6.127300    1.894200    1.731800
     17          6           0       -5.259000    2.486500    2.841500
     18          8           0       -2.809600    0.368400   -0.478300
     19          6           0       -0.707200   -1.328300   -0.009200
     20          1           0       -2.969200    3.060900   -0.985000
     21          1           0       -2.179600    4.701900    0.526500
     22          1           0       -4.502000    3.794300    0.697700
     23          1           0        1.955500   -0.940900   -0.006200
     24          1           0        3.213100    1.176400   -0.005900
     25          1           0        2.005100    3.341100    0.026800
     26          1           0       -1.164000    2.595500    2.488400
     27          1           0       -1.060200    4.331600    2.636700
     28          1           0       -2.935600    3.319500    3.964200
     29          1           0       -3.494900    4.544300    2.818400
     30          1           0       -4.885700    0.773800    0.408800
     31          1           0       -5.750500    2.080900   -0.413300
     32          1           0       -6.984600    2.546500    1.531100
     33          1           0       -6.510900    0.904100    1.999800
     34          1           0       -5.634700    3.484600    3.099500
     35          1           0       -5.283600    1.867600    3.743900
     36          1           0       -1.464700   -1.369600    0.779900
     37          1           0       -0.010700   -2.151700    0.185000
     38          1           0       -1.166100   -1.511000   -0.985700
 ---------------------------------------------------------------------
                    Distance matrix (angstroms):
                    1          2          3          4          5
     1  C    0.000000
     2  C    1.407400   0.000000
     3  C    2.438614   1.393839   0.000000
     4  C    2.809822   2.408095   1.390041   0.000000
     5  C    2.427975   2.779433   2.411903   1.395119   0.000000
     6  C    1.410576   2.425406   2.805829   2.429011   1.398933
     7  C    2.542974   3.809459   4.285174   3.758918   2.463765
     8  O    3.708075   4.144019   3.620235   2.333723   1.367920
     9  C    4.161230   4.935144   4.701085   3.555786   2.337590
    10  C    3.890517   4.995131   5.140720   4.243155   2.851695
    11  C    4.499428   5.192910   4.993156   3.996582   3.011432
    12  C    5.502518   6.392354   6.384737   5.467136   4.374477
    13  N    5.185594   6.314848   6.588115   5.815883   4.555000
    14  C    5.018930   6.220852   6.474343   5.616528   4.240926
    15  C    5.548277   6.889077   7.389849   6.713815   5.331479
    16  C    6.643111   7.959826   8.462233   7.784793   6.432923
    17  C    6.474093   7.661442   8.017814   7.279125   6.010882
    18  O    2.873733   4.259997   5.027210   4.746836   3.562916
    19  C    1.504858   2.497198   3.793580   4.313338   3.831968
    20  H    4.376698   5.430834   5.515242   4.576184   3.250925
    21  H    5.209196   5.937309   5.578627   4.322913   3.226067
    22  H    5.928870   7.057231   7.154044   6.147867   4.802850
    23  H    2.170095   1.088919   2.141922   3.386844   3.868205
    24  H    3.421690   2.155111   1.087062   2.151905   3.398362
    25  H    3.896677   3.394247   2.150480   1.086874   2.154986
    26  H    3.779372   4.420504   4.356741   3.602582   2.748520
    27  H    5.180634   5.639503   5.191205   4.107167   3.414960
    28  H    5.945730   6.752452   6.771529   5.970644   5.020841
    29  H    6.388143   7.254418   7.124838   6.071363   4.984820
    30  H    4.963461   6.353660   7.036377   6.553296   5.222348
    31  H    6.129373   7.465688   7.937220   7.219019   5.831197
    32  H    7.590360   8.902505   9.337005   8.569359   7.197387
    33  H    6.870838   8.216816   8.870336   8.339754   7.020776
    34  H    7.314313   8.446331   8.665126   7.800346   6.549469
    35  H    6.739521   7.891400   8.329189   7.714773   6.526166
    36  H    2.151603   3.276127   4.480611   4.831100   4.157279
    37  H    2.159665   2.583611   3.974370   4.790206   4.581972
    38  H    2.148142   3.142869   4.373666   4.815892   4.245997
                    6          7          8          9         10
     6  C    0.000000
     7  C    1.483716   0.000000
     8  O    2.442723   2.854842   0.000000
     9  C    2.785978   2.509038   1.429360   0.000000
    10  C    2.573958   1.519320   2.463265   1.531637   0.000000
    11  C    3.356975   3.244134   2.456070   1.540167   2.577970
    12  C    4.406021   3.843162   3.800911   2.534597   2.983442
    13  N    4.163555   3.201231   4.201019   2.871580   2.504026
    14  C    3.842003   2.596444   3.769798   2.474846   1.533533
    15  C    4.606162   3.164356   5.081401   3.909503   2.642039
    16  C    5.757148   4.419417   6.117676   4.798021   3.835801
    17  C    5.537454   4.442866   5.619522   4.242442   3.743641
    18  O    2.347618   1.228060   4.061643   3.664782   2.406857
    19  C    2.564652   3.042217   5.004531   5.181249   4.548126
    20  H    3.086318   2.085143   2.745205   2.147861   1.099417
    21  H    3.814309   3.419473   2.010768   1.099014   2.129362
    22  H    4.653667   3.490799   4.039502   2.706844   2.130989
    23  H    3.417886   4.704459   5.231967   6.000061   5.987168
    24  H    3.892861   5.371564   4.484718   5.648701   6.191585
    25  H    3.411437   4.616193   2.539605   3.877438   4.828798
    26  H    2.884551   3.061516   2.720126   2.186438   2.935576
    27  H    4.089911   4.212126   2.699843   2.167849   3.507218
    28  H    5.021846   4.607328   4.594410   3.473895   3.970087
    29  H    5.183286   4.548999   4.144111   2.844909   3.397815
    30  H    4.252333   2.840855   5.256793   4.255535   2.886846
    31  H    5.156926   3.681835   5.496220   4.410424   3.068923
    32  H    6.621648   5.245465   6.728352   5.375350   4.460389
    33  H    6.176887   4.866847   6.880402   5.625243   4.584179
    34  H    6.267001   5.204298   5.950654   4.528922   4.249819
    35  H    5.973609   5.003033   6.282315   4.971148   4.546656
    36  H    2.833677   2.943420   5.178424   5.067815   4.357792
    37  H    3.458700   4.113320   5.845975   6.127550   5.605487
    38  H    2.955949   3.142541   5.330703   5.501381   4.643037
                   11         12         13         14         15
    11  C    0.000000
    12  C    1.526060   0.000000
    13  N    2.435834   1.458278   0.000000
    14  C    2.885216   2.433081   1.469657   0.000000
    15  C    4.293322   3.661716   2.317534   1.521011   0.000000
    16  C    4.759523   3.674280   2.371033   2.390697   1.527971
    17  C    3.772762   2.442516   1.465169   2.338574   2.433209
    18  O    4.309842   4.639295   3.671573   3.030515   2.975820
    19  C    5.434709   6.138375   5.514368   5.390523   5.520793
    20  H    3.493692   3.913060   3.430113   2.158056   2.975863
    21  H    2.128527   2.781767   3.274757   2.732359   4.197267
    22  H    3.218810   2.644317   2.099269   1.102580   2.120085
    23  H    6.180965   7.323998   7.189986   7.152341   7.702043
    24  H    5.874155   7.302785   7.601402   7.529291   8.472904
    25  H    4.301233   5.822519   6.377688   6.179628   7.401871
    26  H    1.097008   2.154868   2.755233   3.371304   4.583657
    27  H    1.096908   2.162989   3.387152   3.857043   5.312040
    28  H    2.148287   1.096174   2.103550   3.381922   4.412532
    29  H    2.158940   1.097622   2.120661   2.723528   3.976487
    30  H    4.598170   4.146949   2.744861   2.196186   1.092377
    31  H    5.060860   4.511173   3.287186   2.186407   1.094290
    32  H    5.435341   4.276150   3.162477   2.980874   2.169883
    33  H    5.497779   4.437547   3.083362   3.271928   2.172249
    34  H    4.045206   2.586619   2.134423   2.828459   3.116274
    35  H    4.242360   2.911447   2.121968   3.272425   3.240239
    36  H    5.110841   5.579727   4.844948   4.912329   4.928220
    37  H    6.262779   7.003080   6.446043   6.435385   6.552428
    38  H    5.998705   6.646574   5.876532   5.503858   5.448342
                   16         17         18         19         20
    16  C    0.000000
    17  C    1.528463   0.000000
    18  O    4.268459   4.637562   0.000000
    19  C    6.541641   6.587721   2.742067   0.000000
    20  H    4.326175   4.496134   2.744408   5.033280   0.000000
    21  H    4.992020   4.444089   4.492855   6.230429   2.366639
    22  H    2.705798   2.622836   3.997998   6.414144   2.391408
    23  H    8.740143   8.479710   4.964204   2.690736   6.420679
    24  H    9.527744   9.033301   6.094993   4.652127   6.536881
    25  H    8.434244   7.837093   5.680969   5.400108   5.083887
    26  H    5.069380   4.111640   4.058236   4.673637   3.942062
    27  H    5.695197   4.590889   5.335783   6.257784   4.286685
    28  H    4.147534   2.711555   5.334855   6.508127   4.956065
    29  H    3.890149   2.710558   5.364327   7.089007   4.116150
    30  H    2.132415   2.998454   2.293793   4.696106   3.293399
    31  H    2.185930   3.316596   3.403788   6.100887   3.003809
    32  H    1.095782   2.167589   5.119808   7.536070   4.766425
    33  H    1.095112   2.186253   4.486377   6.534725   5.109252
    34  H    2.154676   1.097232   5.522006   7.557002   4.895667
    35  H    2.181991   1.094517   5.118129   6.726290   5.398417
    36  H    5.770472   5.789336   2.532285   1.094619   5.000772
    37  H    7.494978   7.490964   3.824227   1.095816   6.106785
    38  H    6.602552   6.883262   2.547684   1.094313   4.914615
                   21         22         23         24         25
    21  H    0.000000
    22  H    2.499318   0.000000
    23  H    7.015983   8.038464   0.000000
    24  H    6.464813   8.177483   2.462624   0.000000
    25  H    4.428678   6.557274   4.282414   2.479165   0.000000
    26  H    3.052444   3.973156   5.334832   5.233964   4.081493
    27  H    2.417255   3.986778   6.624094   5.932935   4.145930
    28  H    3.781580   3.653637   7.605126   7.626341   6.317761
    29  H    2.647198   2.464573   8.232414   8.019768   6.284164
    30  H    4.771457   3.058449   7.065015   8.119398   7.363428
    31  H    4.528155   2.393494   8.287306   9.018327   7.869633
    32  H    5.361249   2.900838   9.718572  10.403491   9.149263
    33  H    5.945928   3.752919   8.894267   9.932430   9.074908
    34  H    4.476591   2.673493   9.318882   9.656856   8.235813
    35  H    5.293367   3.688144   8.622963   9.313038   8.313434
    36  H    6.118693   5.991478   3.535464   5.383439   5.898929
    37  H    7.196706   7.469240   2.317010   4.637411   5.853147
    38  H    6.474107   6.489089   3.320967   5.230633   5.884262
                   26         27         28         29         30
    26  H    0.000000
    27  H    1.745512   0.000000
    28  H    2.416760   2.510723   0.000000
    29  H    3.056111   2.450718   1.767996   0.000000
    30  H    4.636203   5.679430   4.787938   4.685848   0.000000
    31  H    5.451666   6.030511   5.349794   4.647575   1.769813
    32  H    5.899001   6.285495   4.786638   4.222127   2.967727
    33  H    5.629290   6.470203   4.740864   4.797647   2.278055
    34  H    4.599033   4.675216   2.839032   2.404314   3.892211
    35  H    4.367748   5.013412   2.769413   3.349734   3.532367
    36  H    4.327980   6.009576   5.855849   6.576580   4.054025
    37  H    5.401080   7.010382   7.264394   7.994427   5.689838
    38  H    5.378914   6.875243   7.139074   7.520714   4.582616
                   31         32         33         34         35
    31  H    0.000000
    32  H    2.349570   0.000000
    33  H    2.790362   1.772442   0.000000
    34  H    3.784646   2.272034   2.938715   0.000000
    35  H    4.188771   2.872419   2.340189   1.775728   0.000000
    36  H    5.630076   6.809511   5.667628   6.806813   5.817968
    37  H    7.156687   8.515888   7.408374   8.478889   7.524893
    38  H    5.852018   7.526788   6.581246   7.849412   7.123051
                   36         37         38
    36  H    0.000000
    37  H    1.754908   0.000000
    38  H    1.796246   1.765215   0.000000
 Stoichiometry    C16H19NO2
 Framework group  C1[X(C16H19NO2)]
 Deg. of freedom   108
 Full point group                 C1      NOp   1
 Largest Abelian subgroup         C1      NOp   1
 Largest concise Abelian subgroup C1      NOp   1
                         Standard orientation:                         
 ---------------------------------------------------------------------
 Center     Atomic      Atomic             Coordinates (Angstroms)
 Number     Number       Type             X           Y           Z
 ---------------------------------------------------------------------
      1          6           0       -2.553401    1.238633    0.394717
      2          6           0       -3.843188    0.747517    0.670455
      3          6           0       -4.188815   -0.570206    0.375608
      4          6           0       -3.245018   -1.422013   -0.186430
      5          6           0       -1.956979   -0.956981   -0.452997
      6          6           0       -1.609534    0.373861   -0.197742
      7          6           0       -0.263982    0.824027   -0.631624
      8          8           0       -1.097958   -1.884558   -0.975385
      9          6           0        0.272764   -1.626729   -0.662791
     10          6           0        0.722900   -0.230524   -1.103132
     11          6           0        0.588890   -1.955069    0.808388
     12          6           0        2.052230   -1.678276    1.141377
     13          7           0        2.382177   -0.307044    0.770658
     14          6           0        2.180613   -0.050349   -0.662301
     15          6           0        2.857960    1.301319   -0.828643
     16          6           0        4.082082    1.194448    0.079542
     17          6           0        3.777146    0.048281    1.043655
     18          8           0       -0.026614    2.025266   -0.725504
     19          6           0       -2.256346    2.674716    0.732385
     20          1           0        0.672392   -0.181135   -2.200277
     21          1           0        0.836016   -2.350443   -1.268444
     22          1           0        2.778137   -0.777632   -1.236502
     23          1           0       -4.594051    1.398609    1.115459
     24          1           0       -5.191335   -0.931910    0.589677
     25          1           0       -3.506842   -2.453568   -0.406966
     26          1           0       -0.053821   -1.378143    1.484779
     27          1           0        0.351074   -3.007357    1.006730
     28          1           0        2.205748   -1.824366    2.216871
     29          1           0        2.693014   -2.399204    0.617514
     30          1           0        2.250488    2.136520   -0.472688
     31          1           0        3.137169    1.503163   -1.867282
     32          1           0        4.978085    0.967633   -0.509079
     33          1           0        4.255061    2.137024    0.609542
     34          1           0        4.461143   -0.785324    0.840755
     35          1           0        3.910255    0.354438    2.086017
     36          1           0       -1.334400    2.752654    1.317306
     37          1           0       -3.051811    3.112343    1.346007
     38          1           0       -2.178933    3.274394   -0.179708
 ---------------------------------------------------------------------
 Rotational constants (GHZ):           0.7580351           0.2861209           0.2384599
 Standard basis: STO-3G (5D, 7F)
 There are   114 symmetry adapted cartesian basis functions of A   symmetry.
 There are   114 symmetry adapted basis functions of A   symmetry.
   114 basis functions,   342 primitive gaussians,   114 cartesian basis functions
    69 alpha electrons       69 beta electrons
       nuclear repulsion energy      1504.5384312891 Hartrees.
 NAtoms=   38 NActive=   38 NUniq=   38 SFac= 1.00D+00 NAtFMM=   60 NAOKFM=F Big=F
 Integral buffers will be    131072 words long.
 Raffenetti 1 integral format.
 Two-electron integral symmetry is turned on.
 One-electron integrals computed using PRISM.
 NBasis=   114 RedAO= T EigKep=  1.73D-01  NBF=   114
 NBsUse=   114 1.00D-06 EigRej= -1.00D+00 NBFU=   114
 ExpMin= 1.69D-01 ExpMax= 1.31D+02 ExpMxC= 1.31D+02 IAcc=3 IRadAn=         5 AccDes= 0.00D+00
 Harris functional with IExCor=  205 and IRadAn=       5 diagonalized for initial guess.
 HarFok:  IExCor=  205 AccDes= 0.00D+00 IRadAn=         5 IDoV= 1 UseB2=F ITyADJ=14
 ICtDFT=  3500011 ScaDFX=  1.000000  1.000000  1.000000  1.000000
 FoFCou: FMM=F IPFlag=           0 FMFlag=      100000 FMFlg1=           0
         NFxFlg=           0 DoJE=T BraDBF=F KetDBF=T FulRan=T
         wScrn=  0.000000 ICntrl=       500 IOpCl=  0 I1Cent=   200000004 NGrid=           0
         NMat0=    1 NMatS0=      1 NMatT0=    0 NMatD0=    1 NMtDS0=    0 NMtDT0=    0
 Petite list used in FoFCou.
 Requested convergence on RMS density matrix=1.00D-08 within 128 cycles.
 Requested convergence on MAX density matrix=1.00D-06.
 Requested convergence on             energy=1.00D-06.
 No special actions if energy rises.
 Integral accuracy reduced to 1.0D-05 until final iterations.
 Initial convergence to 1.0D-05 achieved.  Increase integral accuracy.
 SCF Done:  E(RHF) =  -811.058019608     A.U. after   15 cycles
            NFock= 15  Conv=0.45D-08     -V/T= 2.0094
 Range of M.O.s used for correlation:     1   114
 NBasis=   114 NAE=    69 NBE=    69 NFC=     0 NFV=     0
 NROrb=    114 NOA=    69 NOB=    69 NVA=    45 NVB=    45
          Differentiating once with respect to magnetic field using GIAOs.
          Electric field/nuclear overlap derivatives assumed to be zero.
 FoFCou: FMM=F IPFlag=           0 FMFlag=      100000 FMFlg1=           0
         NFxFlg=           0 DoJE=F BraDBF=F KetDBF=T FulRan=T
         wScrn=  0.000000 ICntrl=      6100 IOpCl=  0 I1Cent=           7 NGrid=          38
         NMat0=    1 NMatS0=      1 NMatT0=    0 NMatD0=    1 NMtDS0=    0 NMtDT0=    0
 Symmetry not used in FoFCou.
 FoFJK:  IHMeth= 1 ICntrl=    6127 DoSepK=F KAlg= 0 I1Cent=           0 FoldK=F
 IRaf=         1 NMat=       1 IRICut=       1 DoRegI=T DoRafI=F ISym2E= 0 IDoP0=0 IntGTp=1.
          There are     3 degrees of freedom in the 1st order CPHF.  IDoFFX=0 NUNeed=     3.
      3 vectors produced by pass  0 Test12= 1.04D-13 3.33D-08 XBig12= 2.35D+01 1.41D+00.
 AX will form     3 AO Fock derivatives at one time.
      3 vectors produced by pass  1 Test12= 1.04D-13 3.33D-08 XBig12= 1.37D-01 2.02D-01.
      3 vectors produced by pass  2 Test12= 1.04D-13 3.33D-08 XBig12= 4.21D-03 2.45D-02.
      3 vectors produced by pass  3 Test12= 1.04D-13 3.33D-08 XBig12= 1.37D-04 3.41D-03.
      3 vectors produced by pass  4 Test12= 1.04D-13 3.33D-08 XBig12= 1.82D-06 1.59D-04.
      3 vectors produced by pass  5 Test12= 1.04D-13 3.33D-08 XBig12= 2.08D-08 2.22D-05.
      3 vectors produced by pass  6 Test12= 1.04D-13 3.33D-08 XBig12= 3.63D-10 2.65D-06.
      3 vectors produced by pass  7 Test12= 1.04D-13 3.33D-08 XBig12= 6.19D-12 3.23D-07.
      1 vectors produced by pass  8 Test12= 1.04D-13 3.33D-08 XBig12= 1.29D-13 5.31D-08.
 InvSVY:  IOpt=1 It=  1 EMax= 8.88D-16
 Solved reduced A of dimension    25 with     3 vectors.
 Calculating GIAO nuclear magnetic shielding tensors.
 SCF GIAO Magnetic shielding tensor (ppm):
      1  C    Isotropic =   113.6800   Anisotropy =   169.6975
   XX=    97.6712   YX=   -15.5300   ZX=    40.6841
   XY=   -13.0169   YY=    46.4713   ZY=   -53.0066
   XZ=    41.7356   YZ=   -47.3684   ZZ=   196.8977
   Eigenvalues:    31.2121    83.0164   226.8117
      2  C    Isotropic =   123.7619   Anisotropy =   143.7236
   XX=    89.5009   YX=    29.4976   ZX=    52.0045
   XY=    22.3025   YY=    92.8540   ZY=   -45.9970
   XZ=    52.4916   YZ=   -43.3478   ZZ=   188.9308
   Eigenvalues:    34.6369   117.0712   219.5777
      3  C    Isotropic =   117.5069   Anisotropy =   168.2671
   XX=    45.1987   YX=   -36.1151   ZX=    49.8179
   XY=   -38.2564   YY=   102.1028   ZY=   -26.8300
   XZ=    49.7681   YZ=   -25.8751   ZZ=   205.2191
   Eigenvalues:    20.2082   102.6274   229.6849
      4  C    Isotropic =   130.7974   Anisotropy =   147.0572
   XX=   120.9871   YX=   -22.4065   ZX=    27.5241
   XY=   -27.2455   YY=    60.9324   ZY=   -41.3797
   XZ=    26.1008   YZ=   -33.3876   ZZ=   210.4728
   Eigenvalues:    47.3265   116.2302   228.8356
      5  C    Isotropic =   106.4205   Anisotropy =   133.6003
   XX=    77.8962   YX=     8.8546   ZX=    38.6819
   XY=    -1.0661   YY=    70.3081   ZY=   -33.1352
   XZ=    44.3032   YZ=   -39.5892   ZZ=   171.0571
   Eigenvalues:    45.8513    77.9227   195.4873
      6  C    Isotropic =   130.0736   Anisotropy =   151.1577
   XX=    84.9590   YX=   -25.1839   ZX=    49.5794
   XY=   -23.9892   YY=   102.4750   ZY=   -25.6223
   XZ=    50.2551   YZ=   -31.4128   ZZ=   202.7867
   Eigenvalues:    61.3744    98.0009   230.8454
      7  C    Isotropic =    90.6844   Anisotropy =   139.3376
   XX=   -10.6842   YX=    35.8464   ZX=    74.2857
   XY=    35.5195   YY=   125.9874   ZY=   -17.6625
   XZ=    69.4960   YZ=   -15.4662   ZZ=   156.7501
   Eigenvalues:   -46.2466   134.7238   183.5762
      8  O    Isotropic =   342.3987   Anisotropy =   100.1931
   XX=   275.1845   YX=    -7.7095   ZX=    19.6714
   XY=   -45.7624   YY=   348.7578   ZY=    -1.2534
   XZ=    36.7490   YZ=    11.8806   ZZ=   403.2538
   Eigenvalues:   260.7993   357.2027   409.1941
      9  C    Isotropic =   186.5823   Anisotropy =    49.4824
   XX=   217.2407   YX=     7.2894   ZX=     8.9677
   XY=     6.3811   YY=   168.6919   ZY=    -5.8385
   XZ=     8.2997   YZ=    -3.6243   ZZ=   173.8143
   Eigenvalues:   163.8439   176.3324   219.5706
     10  C    Isotropic =   211.2737   Anisotropy =     9.7468
   XX=   215.2081   YX=    -2.4624   ZX=     3.4435
   XY=    -1.5497   YY=   206.5629   ZY=     2.3499
   XZ=     4.0436   YZ=     0.3760   ZZ=   212.0501
   Eigenvalues:   205.3107   210.7388   217.7716
     11  C    Isotropic =   219.7470   Anisotropy =    14.0519
   XX=   224.3733   YX=     1.1673   ZX=     3.8623
   XY=     3.7691   YY=   213.6671   ZY=    -4.9141
   XZ=     8.1650   YZ=    -5.3819   ZZ=   221.2005
   Eigenvalues:   209.3028   220.8232   229.1149
     12  C    Isotropic =   201.6864   Anisotropy =    40.0100
   XX=   199.8214   YX=    10.9332   ZX=    -5.3971
   XY=    12.2433   YY=   219.5642   ZY=    -9.6444
   XZ=    -4.8313   YZ=   -12.3434   ZZ=   185.6738
   Eigenvalues:   182.2295   194.4701   228.3598
     13  N    Isotropic =   293.3374   Anisotropy =    44.4946
   XX=   300.1226   YX=    33.7561   ZX=    19.9741
   XY=    22.2142   YY=   276.2219   ZY=   -17.9860
   XZ=    22.0192   YZ=   -31.6087   ZZ=   303.6676
   Eigenvalues:   241.0645   315.9472   323.0004
     14  C    Isotropic =   192.3481   Anisotropy =    36.1974
   XX=   185.4430   YX=     0.7142   ZX=     6.9767
   XY=    10.5856   YY=   184.6149   ZY=   -14.3297
   XZ=    17.7715   YZ=   -13.8911   ZZ=   206.9865
   Eigenvalues:   169.8769   190.6878   216.4797
     15  C    Isotropic =   216.0071   Anisotropy =    24.2301
   XX=   220.3117   YX=    11.8722   ZX=    10.3923
   XY=    13.1618   YY=   218.8753   ZY=   -12.1396
   XZ=     9.6913   YZ=    -7.1564   ZZ=   208.8343
   Eigenvalues:   194.0020   221.8589   232.1605
     16  C    Isotropic =   216.1452   Anisotropy =    19.5707
   XX=   219.2441   YX=     9.7998   ZX=    10.3581
   XY=     7.9375   YY=   213.5029   ZY=   -14.5800
   XZ=    10.4619   YZ=   -12.9959   ZZ=   215.6886
   Eigenvalues:   193.5638   225.6794   229.1924
     17  C    Isotropic =   198.8139   Anisotropy =    50.9624
   XX=   222.2466   YX=    19.4256   ZX=    13.2316
   XY=    18.7702   YY=   193.3277   ZY=    -5.9148
   XZ=     8.7114   YZ=    -5.7649   ZZ=   180.8674
   Eigenvalues:   171.6224   192.0304   232.7888
     18  O    Isotropic =  -348.3598   Anisotropy =  1274.7368
   XX=  -321.5329   YX=  -184.1779   ZX=   313.1835
   XY=  -132.4237   YY= -1118.0591   ZY=    34.3673
   XZ=   280.1642   YZ=    73.0274   ZZ=   394.5128
   Eigenvalues: -1156.4363  -390.1078   501.4648
     19  C    Isotropic =   218.1987   Anisotropy =    22.9980
   XX=   214.9869   YX=     4.4294   ZX=    -1.1101
   XY=     5.1004   YY=   231.0319   ZY=     6.4788
   XZ=    -3.6797   YZ=     5.9607   ZZ=   208.5774
   Eigenvalues:   205.5719   215.4935   233.5307
     20  H    Isotropic =    31.0740   Anisotropy =    13.1876
   XX=    27.6701   YX=     1.6229   ZX=     2.1835
   XY=     2.0283   YY=    25.8437   ZY=    -2.3005
   XZ=    -0.5045   YZ=    -0.2916   ZZ=    39.7084
   Eigenvalues:    24.5583    28.7981    39.8658
     21  H    Isotropic =    30.4012   Anisotropy =    10.0106
   XX=    29.8634   YX=    -2.6830   ZX=    -2.3179
   XY=    -1.1203   YY=    32.2100   ZY=     5.2252
   XZ=    -0.9661   YZ=     5.4040   ZZ=    29.1303
   Eigenvalues:    25.1300    28.9987    37.0750
     22  H    Isotropic =    32.1385   Anisotropy =     7.9929
   XX=    33.0406   YX=    -1.1204   ZX=    -3.4290
   XY=    -0.2857   YY=    31.7578   ZY=     3.7749
   XZ=    -2.7651   YZ=     4.3224   ZZ=    31.6173
   Eigenvalues:    27.0665    31.8820    37.4671
     23  H    Isotropic =    25.8670   Anisotropy =     6.0622
   XX=    28.4117   YX=     1.9167   ZX=    -1.6796
   XY=     1.9163   YY=    27.2814   ZY=     1.1196
   XZ=    -1.7826   YZ=     1.2760   ZZ=    21.9079
   Eigenvalues:    21.0303    26.6622    29.9084
     24  H    Isotropic =    25.3062   Anisotropy =     3.4976
   XX=    26.8022   YX=     0.2454   ZX=    -1.4088
   XY=    -0.1763   YY=    26.8482   ZY=     1.6499
   XZ=    -1.2297   YZ=     1.6787   ZZ=    22.2682
   Eigenvalues:    21.4281    26.8526    27.6379
     25  H    Isotropic =    25.7029   Anisotropy =     7.1364
   XX=    29.7492   YX=     1.8611   ZX=    -1.6495
   XY=     1.3297   YY=    26.0487   ZY=     1.4670
   XZ=    -1.6938   YZ=     1.8578   ZZ=    21.3109
   Eigenvalues:    20.3211    26.3271    30.4606
     26  H    Isotropic =    32.8404   Anisotropy =     9.1327
   XX=    36.2957   YX=    -3.6470   ZX=    -3.9431
   XY=    -3.2065   YY=    27.6945   ZY=     1.8291
   XZ=    -1.0757   YZ=    -0.9865   ZZ=    34.5310
   Eigenvalues:    26.4715    33.1209    38.9289
     27  H    Isotropic =    32.0930   Anisotropy =    15.0325
   XX=    29.5724   YX=     3.1582   ZX=     0.3853
   XY=     3.9940   YY=    39.1311   ZY=    -4.6520
   XZ=     1.3180   YZ=    -6.4995   ZZ=    27.5756
   Eigenvalues:    24.3572    29.8072    42.1147
     28  H    Isotropic =    31.8040   Anisotropy =    13.7912
   XX=    29.1155   YX=     0.9513   ZX=     2.6412
   XY=     1.4283   YY=    28.1310   ZY=    -5.3536
   XZ=     3.9233   YZ=    -5.2141   ZZ=    38.1654
   Eigenvalues:    24.5048    29.9090    40.9982
     29  H    Isotropic =    32.6779   Anisotropy =    11.0817
   XX=    34.2562   YX=    -4.2946   ZX=    -0.3793
   XY=    -4.3740   YY=    36.7944   ZY=     1.1010
   XZ=     0.1968   YZ=     0.1657   ZZ=    26.9832
   Eigenvalues:    26.9360    31.0321    40.0657
     30  H    Isotropic =    31.1383   Anisotropy =    14.5634
   XX=    31.9020   YX=    -4.6842   ZX=    -1.0223
   XY=    -4.5437   YY=    38.4149   ZY=     0.8069
   XZ=     1.8210   YZ=     1.5345   ZZ=    23.0981
   Eigenvalues:    22.9358    29.6319    40.8473
     31  H    Isotropic =    31.9435   Anisotropy =    14.0941
   XX=    28.7824   YX=     2.3601   ZX=    -2.5094
   XY=     2.6521   YY=    29.1106   ZY=    -5.3377
   XZ=    -2.7541   YZ=    -5.1760   ZZ=    37.9376
   Eigenvalues:    25.9806    28.5104    41.3396
     32  H    Isotropic =    32.0626   Anisotropy =    14.6879
   XX=    39.6720   YX=     0.5453   ZX=    -5.4171
   XY=     0.4519   YY=    27.2177   ZY=    -1.1955
   XZ=    -4.8892   YZ=    -1.2057   ZZ=    29.2980
   Eigenvalues:    26.2485    28.0847    41.8545
     33  H    Isotropic =    31.8979   Anisotropy =    15.2732
   XX=    29.2223   YX=     5.2283   ZX=     2.8622
   XY=     4.6954   YY=    37.7262   ZY=     4.2648
   XZ=     3.5182   YZ=     4.3354   ZZ=    28.7451
   Eigenvalues:    25.7751    27.8385    42.0800
     34  H    Isotropic =    32.3739   Anisotropy =    11.7861
   XX=    37.1568   YX=    -4.6588   ZX=     0.6604
   XY=    -3.8345   YY=    33.5280   ZY=    -2.0851
   XZ=     1.4231   YZ=    -1.7474   ZZ=    26.4368
   Eigenvalues:    25.9520    30.9383    40.2313
     35  H    Isotropic =    31.6485   Anisotropy =    14.0562
   XX=    29.1024   YX=     3.1254   ZX=     5.2049
   XY=     2.5091   YY=    27.7065   ZY=     2.0368
   XZ=     4.8396   YZ=     1.8143   ZZ=    38.1365
   Eigenvalues:    25.2118    28.7143    41.0193
     36  H    Isotropic =    31.2182   Anisotropy =     9.4945
   XX=    35.2677   YX=     2.0158   ZX=     3.8388
   XY=     0.3605   YY=    29.8892   ZY=     2.4064
   XZ=     2.6245   YZ=     5.4450   ZZ=    28.4977
   Eigenvalues:    24.8910    31.2157    37.5479
     37  H    Isotropic =    30.9932   Anisotropy =    12.3271
   XX=    33.1184   YX=    -2.0917   ZX=    -4.8223
   XY=    -3.0142   YY=    31.8431   ZY=     4.0699
   XZ=    -5.4647   YZ=     4.7578   ZZ=    28.0181
   Eigenvalues:    23.9097    29.8586    39.2113
     38  H    Isotropic =    30.6663   Anisotropy =    11.7051
   XX=    27.7097   YX=    -0.2450   ZX=    -2.2219
   XY=     0.7993   YY=    34.4647   ZY=    -4.2428
   XZ=    -2.4612   YZ=    -7.0427   ZZ=    29.8245
   Eigenvalues:    24.8490    28.6803    38.4697
 End of Minotr F.D. properties file   721 does not exist.
 End of Minotr F.D. properties file   722 does not exist.
 End of Minotr F.D. properties file   788 does not exist.

 **********************************************************************

            Population analysis using the SCF Density.

 **********************************************************************

 Orbital symmetries:
       Occupied  (A) (A) (A) (A) (A) (A) (A) (A) (A) (A) (A) (A)
                 (A) (A) (A) (A) (A) (A) (A) (A) (A) (A) (A) (A)
                 (A) (A) (A) (A) (A) (A) (A) (A) (A) (A) (A) (A)
                 (A) (A) (A) (A) (A) (A) (A) (A) (A) (A) (A) (A)
                 (A) (A) (A) (A) (A) (A) (A) (A) (A) (A) (A) (A)
                 (A) (A) (A) (A) (A) (A) (A) (A) (A)
       Virtual   (A) (A) (A) (A) (A) (A) (A) (A) (A) (A) (A) (A)
                 (A) (A) (A) (A) (A) (A) (A) (A) (A) (A) (A) (A)
                 (A) (A) (A) (A) (A) (A) (A) (A) (A) (A) (A) (A)
                 (A) (A) (A) (A) (A) (A) (A) (A) (A)
 The electronic state is 1-A.
 Alpha  occ. eigenvalues --  -20.29840 -20.25895 -15.31572 -11.11424 -11.11123
 Alpha  occ. eigenvalues --  -11.09507 -11.08371 -11.07928 -11.06875 -11.06651
 Alpha  occ. eigenvalues --  -11.05266 -11.04938 -11.04077 -11.04033 -11.03804
 Alpha  occ. eigenvalues --  -11.03716 -11.02661 -11.02013 -11.01696  -1.34400
 Alpha  occ. eigenvalues --   -1.31224  -1.20311  -1.09521  -1.04992  -1.02807
 Alpha  occ. eigenvalues --   -0.98877  -0.97361  -0.95276  -0.92006  -0.88031
 Alpha  occ. eigenvalues --   -0.83776  -0.80009  -0.78383  -0.75316  -0.74593
 Alpha  occ. eigenvalues --   -0.72958  -0.67729  -0.64643  -0.62750  -0.62370
 Alpha  occ. eigenvalues --   -0.61399  -0.60415  -0.58634  -0.57134  -0.56447
 Alpha  occ. eigenvalues --   -0.55591  -0.54201  -0.52679  -0.52527  -0.51332
 Alpha  occ. eigenvalues --   -0.51252  -0.49448  -0.49349  -0.47669  -0.47307
 Alpha  occ. eigenvalues --   -0.45984  -0.45178  -0.44499  -0.43981  -0.43286
 Alpha  occ. eigenvalues --   -0.42693  -0.42544  -0.39553  -0.38125  -0.36288
 Alpha  occ. eigenvalues --   -0.31031  -0.28936  -0.27010  -0.24281
 Alpha virt. eigenvalues --    0.21706   0.27079   0.34688   0.49080   0.52270
 Alpha virt. eigenvalues --    0.53291   0.54580   0.55685   0.57486   0.58557
 Alpha virt. eigenvalues --    0.60756   0.62137   0.62985   0.64167   0.64991
 Alpha virt. eigenvalues --    0.65518   0.66557   0.68687   0.69453   0.69673
 Alpha virt. eigenvalues --    0.70693   0.71631   0.72547   0.73732   0.73995
 Alpha virt. eigenvalues --    0.74413   0.75116   0.75589   0.75816   0.77245
 Alpha virt. eigenvalues --    0.77330   0.78659   0.78987   0.79573   0.80150
 Alpha virt. eigenvalues --    0.82648   0.84865   0.86363   0.87154   0.87668
 Alpha virt. eigenvalues --    0.90494   0.93781   1.00823   1.12105   1.13862
          Condensed to atoms (all electrons):
               1          2          3          4          5          6
     1  C    4.757856   0.505639  -0.028767  -0.010090  -0.028139   0.497152
     2  C    0.505639   4.807040   0.504205  -0.031591  -0.011380  -0.031018
     3  C   -0.028767   0.504205   4.759633   0.509217  -0.029271  -0.009493
     4  C   -0.010090  -0.031591   0.509217   4.807450   0.499000  -0.032211
     5  C   -0.028139  -0.011380  -0.029271   0.499000   4.753050   0.490151
     6  C    0.497152  -0.031018  -0.009493  -0.032211   0.490151   4.872217
     7  C   -0.023200   0.000758   0.000018   0.000804  -0.029556   0.388633
     8  O    0.000252   0.000008   0.000353  -0.027259   0.293308  -0.017272
     9  C    0.000030   0.000000  -0.000021   0.001704  -0.041100  -0.007201
    10  C    0.000572  -0.000006  -0.000000  -0.000033  -0.004653  -0.033314
    11  C   -0.000007   0.000000   0.000001   0.000016  -0.002615  -0.000150
    12  C    0.000000   0.000000  -0.000000   0.000000   0.000006  -0.000003
    13  N    0.000000  -0.000000   0.000000  -0.000000   0.000001  -0.000003
    14  C   -0.000004   0.000000  -0.000000   0.000000   0.000013   0.000503
    15  C   -0.000000   0.000000   0.000000  -0.000000  -0.000000  -0.000000
    16  C   -0.000000   0.000000  -0.000000   0.000000   0.000000   0.000000
    17  C   -0.000000   0.000000  -0.000000   0.000000  -0.000000   0.000000
    18  O   -0.001177  -0.000004   0.000000  -0.000002   0.000321  -0.029562
    19  C    0.381360  -0.030189   0.000878   0.000012   0.000721  -0.024139
    20  H   -0.000017   0.000000   0.000000  -0.000000   0.000034   0.000662
    21  H    0.000001   0.000000   0.000000  -0.000039   0.002567  -0.000025
    22  H    0.000000  -0.000000  -0.000000  -0.000000  -0.000001  -0.000018
    23  H   -0.025058   0.394180  -0.026788   0.001423   0.000049   0.001258
    24  H    0.001323  -0.024846   0.393628  -0.025129   0.001370   0.000008
    25  H    0.000037   0.001386  -0.024655   0.393427  -0.025329   0.001238
    26  H   -0.000007   0.000001   0.000003  -0.000086   0.000288  -0.000157
    27  H    0.000000  -0.000000  -0.000000  -0.000003   0.000049   0.000012
    28  H   -0.000000  -0.000000   0.000000   0.000000  -0.000000   0.000001
    29  H    0.000000   0.000000   0.000000  -0.000000  -0.000001  -0.000001
    30  H    0.000000  -0.000000   0.000000   0.000000  -0.000000   0.000004
    31  H    0.000000  -0.000000  -0.000000  -0.000000   0.000000   0.000000
    32  H   -0.000000   0.000000  -0.000000  -0.000000   0.000000  -0.000000
    33  H    0.000000  -0.000000   0.000000  -0.000000  -0.000000  -0.000000
    34  H    0.000000  -0.000000   0.000000  -0.000000  -0.000000  -0.000000
    35  H    0.000000  -0.000000  -0.000000  -0.000000   0.000000  -0.000000
    36  H   -0.020975   0.000961  -0.000023   0.000002   0.000006  -0.002418
    37  H   -0.020656  -0.005561   0.000059  -0.000000  -0.000016   0.001122
    38  H   -0.021129   0.000375  -0.000022   0.000003  -0.000005  -0.001248
               7          8          9         10         11         12
     1  C   -0.023200   0.000252   0.000030   0.000572  -0.000007   0.000000
     2  C    0.000758   0.000008   0.000000  -0.000006   0.000000   0.000000
     3  C    0.000018   0.000353  -0.000021  -0.000000   0.000001  -0.000000
     4  C    0.000804  -0.027259   0.001704  -0.000033   0.000016   0.000000
     5  C   -0.029556   0.293308  -0.041100  -0.004653  -0.002615   0.000006
     6  C    0.388633  -0.017272  -0.007201  -0.033314  -0.000150  -0.000003
     7  C    4.759821  -0.001949  -0.022824   0.354468  -0.000853   0.000055
     8  O   -0.001949   7.793237   0.264310  -0.015411  -0.017155   0.000224
     9  C   -0.022824   0.264310   4.744379   0.354977   0.357134  -0.020212
    10  C    0.354468  -0.015411   0.354977   4.813727  -0.023059  -0.001868
    11  C   -0.000853  -0.017155   0.357134  -0.023059   4.771120   0.361467
    12  C    0.000055   0.000224  -0.020212  -0.001868   0.361467   4.701310
    13  N   -0.000299  -0.000000  -0.003220  -0.019739  -0.022774   0.330184
    14  C   -0.017642   0.000228  -0.022737   0.359886  -0.004258  -0.033892
    15  C   -0.001650  -0.000000   0.000612  -0.015608   0.000007   0.001438
    16  C    0.000008   0.000000  -0.000009   0.000788  -0.000014   0.001334
    17  C    0.000003   0.000000   0.000028   0.001138   0.001124  -0.032963
    18  O    0.432218   0.000000   0.000291  -0.024304  -0.000001  -0.000000
    19  C   -0.002635  -0.000001  -0.000000   0.000007  -0.000000   0.000000
    20  H   -0.025905  -0.000218  -0.021867   0.378473   0.001170  -0.000016
    21  H    0.001260  -0.020482   0.378797  -0.025426  -0.026587  -0.001339
    22  H    0.001178   0.000002  -0.002314  -0.028422  -0.000074  -0.003786
    23  H   -0.000014   0.000000  -0.000000   0.000000  -0.000000  -0.000000
    24  H    0.000001  -0.000005   0.000000  -0.000000  -0.000000   0.000000
    25  H   -0.000019  -0.001085   0.000036   0.000000  -0.000002   0.000000
    26  H    0.000031  -0.000881  -0.021907  -0.001078   0.380592  -0.021486
    27  H   -0.000004  -0.000389  -0.020976   0.001123   0.382188  -0.019927
    28  H   -0.000003  -0.000004   0.001168  -0.000016  -0.020709   0.383266
    29  H    0.000001  -0.000000  -0.001613  -0.000069  -0.024981   0.376598
    30  H   -0.000380  -0.000000   0.000006  -0.002204   0.000001  -0.000003
    31  H    0.000012   0.000000  -0.000005  -0.000003  -0.000001  -0.000030
    32  H   -0.000000  -0.000000   0.000000  -0.000009   0.000000  -0.000034
    33  H    0.000000  -0.000000   0.000000  -0.000016   0.000000  -0.000016
    34  H   -0.000000  -0.000000  -0.000000  -0.000025   0.000013  -0.005150
    35  H    0.000000   0.000000  -0.000001  -0.000018  -0.000003   0.000231
    36  H   -0.000098  -0.000000  -0.000000  -0.000004   0.000000  -0.000000
    37  H    0.000016   0.000000  -0.000000   0.000000   0.000000  -0.000000
    38  H   -0.000031  -0.000000  -0.000000  -0.000003  -0.000000   0.000000
              13         14         15         16         17         18
     1  C    0.000000  -0.000004  -0.000000  -0.000000  -0.000000  -0.001177
     2  C   -0.000000   0.000000   0.000000   0.000000   0.000000  -0.000004
     3  C    0.000000  -0.000000   0.000000  -0.000000  -0.000000   0.000000
     4  C   -0.000000   0.000000  -0.000000   0.000000   0.000000  -0.000002
     5  C    0.000001   0.000013  -0.000000   0.000000  -0.000000   0.000321
     6  C   -0.000003   0.000503  -0.000000   0.000000   0.000000  -0.029562
     7  C   -0.000299  -0.017642  -0.001650   0.000008   0.000003   0.432218
     8  O   -0.000000   0.000228  -0.000000   0.000000   0.000000   0.000000
     9  C   -0.003220  -0.022737   0.000612  -0.000009   0.000028   0.000291
    10  C   -0.019739   0.359886  -0.015608   0.000788   0.001138  -0.024304
    11  C   -0.022774  -0.004258   0.000007  -0.000014   0.001124  -0.000001
    12  C    0.330184  -0.033892   0.001438   0.001334  -0.032963  -0.000000
    13  N    6.511811   0.327436  -0.034805  -0.028758   0.332437   0.000018
    14  C    0.327436   4.732980   0.366769  -0.034856  -0.046586  -0.000595
    15  C   -0.034805   0.366769   4.761273   0.360334  -0.031102  -0.001743
    16  C   -0.028758  -0.034856   0.360334   4.759426   0.362143   0.000005
    17  C    0.332437  -0.046586  -0.031102   0.362143   4.718807  -0.000001
    18  O    0.000018  -0.000595  -0.001743   0.000005  -0.000001   7.857597
    19  C   -0.000000  -0.000000  -0.000000   0.000000   0.000000  -0.001566
    20  H    0.000797  -0.020049  -0.000898  -0.000001  -0.000025  -0.001016
    21  H    0.000046  -0.001464  -0.000001  -0.000000  -0.000005  -0.000006
    22  H   -0.024045   0.376768  -0.026682  -0.001516  -0.002244  -0.000018
    23  H    0.000000  -0.000000  -0.000000  -0.000000  -0.000000   0.000000
    24  H   -0.000000   0.000000  -0.000000   0.000000   0.000000  -0.000000
    25  H   -0.000000   0.000000  -0.000000  -0.000000   0.000000   0.000000
    26  H   -0.000901   0.000097  -0.000004  -0.000000   0.000007  -0.000004
    27  H    0.000911   0.000016   0.000001   0.000000  -0.000023   0.000000
    28  H   -0.020406   0.001779  -0.000031   0.000005  -0.002097   0.000000
    29  H   -0.022236  -0.002955  -0.000003   0.000014  -0.003106  -0.000000
    30  H   -0.000524  -0.019578   0.384257  -0.022873   0.000645   0.000912
    31  H    0.001136  -0.020207   0.383865  -0.019611   0.001341   0.000035
    32  H    0.000919   0.000543  -0.021623   0.383949  -0.021765  -0.000000
    33  H    0.000698   0.001423  -0.020745   0.385690  -0.020508   0.000001
    34  H   -0.020684  -0.000617   0.000900  -0.023254   0.379126   0.000000
    35  H   -0.022374   0.001968   0.001171  -0.019883   0.383408   0.000000
    36  H    0.000000   0.000000  -0.000000   0.000000   0.000000  -0.000292
    37  H   -0.000000  -0.000000   0.000000  -0.000000  -0.000000   0.000064
    38  H    0.000000   0.000000   0.000000  -0.000000  -0.000000  -0.000488
              19         20         21         22         23         24
     1  C    0.381360  -0.000017   0.000001   0.000000  -0.025058   0.001323
     2  C   -0.030189   0.000000   0.000000  -0.000000   0.394180  -0.024846
     3  C    0.000878   0.000000   0.000000  -0.000000  -0.026788   0.393628
     4  C    0.000012  -0.000000  -0.000039  -0.000000   0.001423  -0.025129
     5  C    0.000721   0.000034   0.002567  -0.000001   0.000049   0.001370
     6  C   -0.024139   0.000662  -0.000025  -0.000018   0.001258   0.000008
     7  C   -0.002635  -0.025905   0.001260   0.001178  -0.000014   0.000001
     8  O   -0.000001  -0.000218  -0.020482   0.000002   0.000000  -0.000005
     9  C   -0.000000  -0.021867   0.378797  -0.002314  -0.000000   0.000000
    10  C    0.000007   0.378473  -0.025426  -0.028422   0.000000  -0.000000
    11  C   -0.000000   0.001170  -0.026587  -0.000074  -0.000000  -0.000000
    12  C    0.000000  -0.000016  -0.001339  -0.003786  -0.000000   0.000000
    13  N   -0.000000   0.000797   0.000046  -0.024045   0.000000  -0.000000
    14  C   -0.000000  -0.020049  -0.001464   0.376768  -0.000000   0.000000
    15  C   -0.000000  -0.000898  -0.000001  -0.026682  -0.000000  -0.000000
    16  C    0.000000  -0.000001  -0.000000  -0.001516  -0.000000   0.000000
    17  C    0.000000  -0.000025  -0.000005  -0.002244  -0.000000   0.000000
    18  O   -0.001566  -0.001016  -0.000006  -0.000018   0.000000  -0.000000
    19  C    4.713044  -0.000000  -0.000000   0.000000  -0.004215  -0.000016
    20  H   -0.000000   0.624346  -0.004247  -0.003238  -0.000000  -0.000000
    21  H   -0.000000  -0.004247   0.635207   0.000261   0.000000  -0.000000
    22  H    0.000000  -0.003238   0.000261   0.676209   0.000000  -0.000000
    23  H   -0.004215  -0.000000   0.000000   0.000000   0.605334  -0.003740
    24  H   -0.000016  -0.000000  -0.000000  -0.000000  -0.003740   0.594663
    25  H    0.000000  -0.000000  -0.000005   0.000000  -0.000032  -0.003708
    26  H   -0.000000  -0.000010   0.001868   0.000009   0.000000  -0.000000
    27  H    0.000000  -0.000030  -0.003399  -0.000010   0.000000  -0.000000
    28  H   -0.000000   0.000003  -0.000009  -0.000027  -0.000000  -0.000000
    29  H    0.000000  -0.000005   0.000389   0.001798   0.000000  -0.000000
    30  H    0.000000   0.000026  -0.000001   0.001837   0.000000   0.000000
    31  H    0.000000   0.000132   0.000001  -0.003762  -0.000000  -0.000000
    32  H   -0.000000  -0.000000  -0.000000   0.000103  -0.000000   0.000000
    33  H    0.000000  -0.000000  -0.000000  -0.000008   0.000000  -0.000000
    34  H    0.000000   0.000001   0.000001   0.000960   0.000000  -0.000000
    35  H   -0.000000   0.000000   0.000000  -0.000072   0.000000  -0.000000
    36  H    0.381081  -0.000000  -0.000000  -0.000000   0.000062   0.000000
    37  H    0.382548   0.000000   0.000000   0.000000   0.000166  -0.000003
    38  H    0.380552   0.000000   0.000000  -0.000000   0.000079   0.000000
              25         26         27         28         29         30
     1  C    0.000037  -0.000007   0.000000  -0.000000   0.000000   0.000000
     2  C    0.001386   0.000001  -0.000000  -0.000000   0.000000  -0.000000
     3  C   -0.024655   0.000003  -0.000000   0.000000   0.000000   0.000000
     4  C    0.393427  -0.000086  -0.000003   0.000000  -0.000000   0.000000
     5  C   -0.025329   0.000288   0.000049  -0.000000  -0.000001  -0.000000
     6  C    0.001238  -0.000157   0.000012   0.000001  -0.000001   0.000004
     7  C   -0.000019   0.000031  -0.000004  -0.000003   0.000001  -0.000380
     8  O   -0.001085  -0.000881  -0.000389  -0.000004  -0.000000  -0.000000
     9  C    0.000036  -0.021907  -0.020976   0.001168  -0.001613   0.000006
    10  C    0.000000  -0.001078   0.001123  -0.000016  -0.000069  -0.002204
    11  C   -0.000002   0.380592   0.382188  -0.020709  -0.024981   0.000001
    12  C    0.000000  -0.021486  -0.019927   0.383266   0.376598  -0.000003
    13  N   -0.000000  -0.000901   0.000911  -0.020406  -0.022236  -0.000524
    14  C    0.000000   0.000097   0.000016   0.001779  -0.002955  -0.019578
    15  C   -0.000000  -0.000004   0.000001  -0.000031  -0.000003   0.384257
    16  C   -0.000000  -0.000000   0.000000   0.000005   0.000014  -0.022873
    17  C    0.000000   0.000007  -0.000023  -0.002097  -0.003106   0.000645
    18  O    0.000000  -0.000004   0.000000   0.000000  -0.000000   0.000912
    19  C    0.000000  -0.000000   0.000000  -0.000000   0.000000   0.000000
    20  H   -0.000000  -0.000010  -0.000030   0.000003  -0.000005   0.000026
    21  H   -0.000005   0.001868  -0.003399  -0.000009   0.000389  -0.000001
    22  H    0.000000   0.000009  -0.000010  -0.000027   0.001798   0.001837
    23  H   -0.000032   0.000000   0.000000  -0.000000   0.000000   0.000000
    24  H   -0.003708  -0.000000  -0.000000  -0.000000  -0.000000   0.000000
    25  H    0.590213  -0.000003   0.000001  -0.000000  -0.000000  -0.000000
    26  H   -0.000003   0.625878  -0.023834  -0.003422   0.001900  -0.000000
    27  H    0.000001  -0.023834   0.624955  -0.001407  -0.002610  -0.000000
    28  H   -0.000000  -0.003422  -0.001407   0.622874  -0.025691   0.000001
    29  H   -0.000000   0.001900  -0.002610  -0.025691   0.659187  -0.000001
    30  H   -0.000000  -0.000000  -0.000000   0.000001  -0.000001   0.606474
    31  H   -0.000000   0.000000  -0.000000   0.000001   0.000001  -0.022737
    32  H    0.000000   0.000000  -0.000000  -0.000000   0.000003   0.001845
    33  H   -0.000000  -0.000000  -0.000000  -0.000000  -0.000001  -0.006613
    34  H   -0.000000  -0.000001  -0.000000  -0.000409   0.001825  -0.000027
    35  H   -0.000000   0.000002   0.000000   0.000388  -0.000169  -0.000033
    36  H   -0.000000   0.000000  -0.000000   0.000000   0.000000   0.000001
    37  H    0.000000   0.000000  -0.000000  -0.000000   0.000000   0.000000
    38  H   -0.000000  -0.000000   0.000000   0.000000  -0.000000   0.000000
              31         32         33         34         35         36
     1  C    0.000000  -0.000000   0.000000   0.000000   0.000000  -0.020975
     2  C   -0.000000   0.000000  -0.000000  -0.000000  -0.000000   0.000961
     3  C   -0.000000  -0.000000   0.000000   0.000000  -0.000000  -0.000023
     4  C   -0.000000  -0.000000  -0.000000  -0.000000  -0.000000   0.000002
     5  C    0.000000   0.000000  -0.000000  -0.000000   0.000000   0.000006
     6  C    0.000000  -0.000000  -0.000000  -0.000000  -0.000000  -0.002418
     7  C    0.000012  -0.000000   0.000000  -0.000000   0.000000  -0.000098
     8  O    0.000000  -0.000000  -0.000000  -0.000000   0.000000  -0.000000
     9  C   -0.000005   0.000000   0.000000  -0.000000  -0.000001  -0.000000
    10  C   -0.000003  -0.000009  -0.000016  -0.000025  -0.000018  -0.000004
    11  C   -0.000001   0.000000   0.000000   0.000013  -0.000003   0.000000
    12  C   -0.000030  -0.000034  -0.000016  -0.005150   0.000231  -0.000000
    13  N    0.001136   0.000919   0.000698  -0.020684  -0.022374   0.000000
    14  C   -0.020207   0.000543   0.001423  -0.000617   0.001968   0.000000
    15  C    0.383865  -0.021623  -0.020745   0.000900   0.001171  -0.000000
    16  C   -0.019611   0.383949   0.385690  -0.023254  -0.019883   0.000000
    17  C    0.001341  -0.021765  -0.020508   0.379126   0.383408   0.000000
    18  O    0.000035  -0.000000   0.000001   0.000000   0.000000  -0.000292
    19  C    0.000000  -0.000000   0.000000   0.000000  -0.000000   0.381081
    20  H    0.000132  -0.000000  -0.000000   0.000001   0.000000  -0.000000
    21  H    0.000001  -0.000000  -0.000000   0.000001   0.000000  -0.000000
    22  H   -0.003762   0.000103  -0.000008   0.000960  -0.000072  -0.000000
    23  H   -0.000000  -0.000000   0.000000   0.000000   0.000000   0.000062
    24  H   -0.000000   0.000000  -0.000000  -0.000000  -0.000000   0.000000
    25  H   -0.000000   0.000000  -0.000000  -0.000000  -0.000000  -0.000000
    26  H    0.000000   0.000000  -0.000000  -0.000001   0.000002   0.000000
    27  H   -0.000000  -0.000000  -0.000000  -0.000000   0.000000  -0.000000
    28  H    0.000001  -0.000000  -0.000000  -0.000409   0.000388   0.000000
    29  H    0.000001   0.000003  -0.000001   0.001825  -0.000169   0.000000
    30  H   -0.022737   0.001845  -0.006613  -0.000027  -0.000033   0.000001
    31  H    0.629561  -0.005522   0.000932  -0.000030  -0.000021   0.000000
    32  H   -0.005522   0.638409  -0.023537  -0.006948   0.001391  -0.000000
    33  H    0.000932  -0.023537   0.627929   0.001627  -0.005660   0.000000
    34  H   -0.000030  -0.006948   0.001627   0.655510  -0.026910   0.000000
    35  H   -0.000021   0.001391  -0.005660  -0.026910   0.626267  -0.000000
    36  H    0.000000  -0.000000   0.000000   0.000000  -0.000000   0.609518
    37  H   -0.000000   0.000000  -0.000000  -0.000000   0.000000  -0.022387
    38  H   -0.000000   0.000000  -0.000000  -0.000000   0.000000  -0.018450
              37         38
     1  C   -0.020656  -0.021129
     2  C   -0.005561   0.000375
     3  C    0.000059  -0.000022
     4  C   -0.000000   0.000003
     5  C   -0.000016  -0.000005
     6  C    0.001122  -0.001248
     7  C    0.000016  -0.000031
     8  O    0.000000  -0.000000
     9  C   -0.000000  -0.000000
    10  C    0.000000  -0.000003
    11  C    0.000000  -0.000000
    12  C   -0.000000   0.000000
    13  N   -0.000000   0.000000
    14  C   -0.000000   0.000000
    15  C    0.000000   0.000000
    16  C   -0.000000  -0.000000
    17  C   -0.000000  -0.000000
    18  O    0.000064  -0.000488
    19  C    0.382548   0.380552
    20  H    0.000000   0.000000
    21  H    0.000000   0.000000
    22  H    0.000000  -0.000000
    23  H    0.000166   0.000079
    24  H   -0.000003   0.000000
    25  H    0.000000  -0.000000
    26  H    0.000000  -0.000000
    27  H   -0.000000   0.000000
    28  H   -0.000000   0.000000
    29  H    0.000000  -0.000000
    30  H    0.000000   0.000000
    31  H   -0.000000  -0.000000
    32  H    0.000000   0.000000
    33  H   -0.000000  -0.000000
    34  H   -0.000000  -0.000000
    35  H    0.000000   0.000000
    36  H   -0.022387  -0.018450
    37  H    0.625949  -0.021585
    38  H   -0.021585   0.603814
 Mulliken charges:
               1
     1  C    0.035003
     2  C   -0.079958
     3  C   -0.048955
     4  C   -0.086613
     5  C    0.131134
     6  C   -0.064729
     7  C    0.187777
     8  O   -0.249812
     9  C    0.082535
    10  C   -0.069875
    11  C   -0.111592
    12  C   -0.015389
    13  N   -0.285630
    14  C    0.055029
    15  C   -0.105729
    16  C   -0.102921
    17  C   -0.019782
    18  O   -0.230685
    19  C   -0.177443
    20  H    0.071899
    21  H    0.062639
    22  H    0.037111
    23  H    0.057296
    24  H    0.066454
    25  H    0.068500
    26  H    0.063105
    27  H    0.063357
    28  H    0.064748
    29  H    0.041722
    30  H    0.078964
    31  H    0.054913
    32  H    0.052276
    33  H    0.058803
    34  H    0.044091
    35  H    0.060318
    36  H    0.073016
    37  H    0.060283
    38  H    0.078137
 Sum of Mulliken charges =  -0.00000
 Mulliken charges with hydrogens summed into heavy atoms:
               1
     1  C    0.035003
     2  C   -0.022662
     3  C    0.017499
     4  C   -0.018113
     5  C    0.131134
     6  C   -0.064729
     7  C    0.187777
     8  O   -0.249812
     9  C    0.145174
    10  C    0.002024
    11  C    0.014870
    12  C    0.091082
    13  N   -0.285630
    14  C    0.092140
    15  C    0.028148
    16  C    0.008158
    17  C    0.084627
    18  O   -0.230685
    19  C    0.033993
 Electronic spatial extent (au):  <R**2>=           4824.5432
 Charge=             -0.0000 electrons
 Dipole moment (field-independent basis, Debye):
    X=              1.0287    Y=             -1.2554    Z=              0.2588  Tot=              1.6436
 Quadrupole moment (field-independent basis, Debye-Ang):
   XX=            -98.0965   YY=           -108.2823   ZZ=           -105.3717
   XY=             -3.7388   XZ=             -2.8543   YZ=             -0.0148
 Traceless Quadrupole moment (field-independent basis, Debye-Ang):
   XX=              5.8203   YY=             -4.3654   ZZ=             -1.4549
   XY=             -3.7388   XZ=             -2.8543   YZ=             -0.0148
 Octapole moment (field-independent basis, Debye-Ang**2):
  XXX=             -3.2878  YYY=             -4.7145  ZZZ=             -7.8408  XYY=              1.4746
  XXY=             -1.0378  XXZ=              3.8792  XZZ=              5.9380  YZZ=              2.2891
  YYZ=              7.8395  XYZ=              0.7002
 Hexadecapole moment (field-independent basis, Debye-Ang**3):
 XXXX=          -4131.8287 YYYY=          -1392.4409 ZZZZ=           -493.0005 XXXY=             14.9331
 XXXZ=            -28.4875 YYYX=             -7.3495 YYYZ=              4.1268 ZZZX=             11.8130
 ZZZY=             -4.3835 XXYY=           -916.4768 XXZZ=           -800.1649 YYZZ=           -315.2821
 XXYZ=              9.4516 YYXZ=             -1.1820 ZZXY=             -6.2612
 N-N= 1.504538431289D+03 E-N=-4.904367373176D+03  KE= 8.035243169486D+02
 ******************************Gaussian NBO Version 3.1******************************
             N A T U R A L   A T O M I C   O R B I T A L   A N D
          N A T U R A L   B O N D   O R B I T A L   A N A L Y S I S
 ******************************Gaussian NBO Version 3.1******************************
       /RESON  / : Allow strongly delocalized NBO set
       /NLMO   / : Form Natural Localized Molecular Orbitals
       /NMR /    : Analyze NMR Sheilding Tensor 

 Analyzing the SCF density

 Job title: Title Card Required                                             

 Storage needed:     43472 in NPA,     53775 in NBO,    102144 in NLMO ( 104850000 available)
 GSVD:  LWork=      -13908 too small for GESVD, short by       66690 words or       66690 for optimal perf.


 NATURAL POPULATIONS:  Natural atomic orbital occupancies 
                                                          
   NAO  Atom  No  lang   Type(AO)    Occupancy      Energy
 ----------------------------------------------------------
     1    C    1  S      Cor( 1S)     1.99991     -10.98119
     2    C    1  S      Val( 2S)     1.08168      -0.19783
     3    C    1  px     Val( 2p)     0.95791       0.14743
     4    C    1  py     Val( 2p)     0.94501       0.14755
     5    C    1  pz     Val( 2p)     0.93892       0.04721

     6    C    2  S      Cor( 1S)     1.99995     -10.94448
     7    C    2  S      Val( 2S)     1.07995      -0.18302
     8    C    2  px     Val( 2p)     0.97544       0.14436
     9    C    2  py     Val( 2p)     0.97944       0.14432
    10    C    2  pz     Val( 2p)     1.03911       0.02171

    11    C    3  S      Cor( 1S)     1.99994     -10.96127
    12    C    3  S      Val( 2S)     1.07959      -0.18628
    13    C    3  px     Val( 2p)     0.98287       0.13367
    14    C    3  py     Val( 2p)     0.98124       0.13917
    15    C    3  pz     Val( 2p)     0.96507       0.03311

    16    C    4  S      Cor( 1S)     1.99994     -10.94610
    17    C    4  S      Val( 2S)     1.07678      -0.18310
    18    C    4  px     Val( 2p)     0.98244       0.13814
    19    C    4  py     Val( 2p)     0.99289       0.13674
    20    C    4  pz     Val( 2p)     1.04315       0.01758

    21    C    5  S      Cor( 1S)     1.99978     -11.03028
    22    C    5  S      Val( 2S)     1.05877      -0.21135
    23    C    5  px     Val( 2p)     0.91877       0.12097
    24    C    5  py     Val( 2p)     0.90140       0.15784
    25    C    5  pz     Val( 2p)     0.93440       0.01845

    26    C    6  S      Cor( 1S)     1.99991     -10.95867
    27    C    6  S      Val( 2S)     1.08773      -0.20535
    28    C    6  px     Val( 2p)     0.98984       0.12045
    29    C    6  py     Val( 2p)     0.97338       0.13873
    30    C    6  pz     Val( 2p)     1.07511       0.01091

    31    C    7  S      Cor( 1S)     1.99996     -11.05441
    32    C    7  S      Val( 2S)     1.08001      -0.24211
    33    C    7  px     Val( 2p)     0.92871       0.10418
    34    C    7  py     Val( 2p)     0.85079       0.17981
    35    C    7  pz     Val( 2p)     0.89506       0.00897

    36    O    8  S      Cor( 1S)     1.99999     -20.20730
    37    O    8  S      Val( 2S)     1.73077      -1.01807
    38    O    8  px     Val( 2p)     1.15808      -0.06060
    39    O    8  py     Val( 2p)     1.60223      -0.26178
    40    O    8  pz     Val( 2p)     1.76378      -0.32911

    41    C    9  S      Cor( 1S)     1.99988     -11.06064
    42    C    9  S      Val( 2S)     1.08726      -0.24272
    43    C    9  px     Val( 2p)     0.80641       0.10280
    44    C    9  py     Val( 2p)     0.97816       0.06314
    45    C    9  pz     Val( 2p)     0.97642       0.06408

    46    C   10  S      Cor( 1S)     1.99996     -11.00938
    47    C   10  S      Val( 2S)     1.10368      -0.23564
    48    C   10  px     Val( 2p)     0.98551       0.07166
    49    C   10  py     Val( 2p)     0.98023       0.06911
    50    C   10  pz     Val( 2p)     1.01691       0.06167

    51    C   11  S      Cor( 1S)     1.99996     -10.99136
    52    C   11  S      Val( 2S)     1.09039      -0.21190
    53    C   11  px     Val( 2p)     0.98996       0.07629
    54    C   11  py     Val( 2p)     1.02876       0.06908
    55    C   11  pz     Val( 2p)     0.98238       0.07732

    56    C   12  S      Cor( 1S)     1.99994     -11.01886
    57    C   12  S      Val( 2S)     1.07182      -0.20282
    58    C   12  px     Val( 2p)     0.97716       0.07325
    59    C   12  py     Val( 2p)     0.89131       0.10802
    60    C   12  pz     Val( 2p)     1.02040       0.06396

    61    N   13  S      Cor( 1S)     1.99999     -15.24903
    62    N   13  S      Val( 2S)     1.44911      -0.60189
    63    N   13  px     Val( 2p)     1.28800      -0.05988
    64    N   13  py     Val( 2p)     1.30514      -0.06263
    65    N   13  pz     Val( 2p)     1.23097      -0.03691

    66    C   14  S      Cor( 1S)     1.99994     -11.02802
    67    C   14  S      Val( 2S)     1.08032      -0.21529
    68    C   14  px     Val( 2p)     0.95218       0.09009
    69    C   14  py     Val( 2p)     0.99109       0.07198
    70    C   14  pz     Val( 2p)     0.87366       0.11319

    71    C   15  S      Cor( 1S)     1.99997     -10.97480
    72    C   15  S      Val( 2S)     1.08341      -0.18899
    73    C   15  px     Val( 2p)     0.99313       0.08291
    74    C   15  py     Val( 2p)     0.99392       0.09534
    75    C   15  pz     Val( 2p)     1.00611       0.09608

    76    C   16  S      Cor( 1S)     1.99997     -10.97824
    77    C   16  S      Val( 2S)     1.08289      -0.19214
    78    C   16  px     Val( 2p)     0.99589       0.09255
    79    C   16  py     Val( 2p)     0.99942       0.09011
    80    C   16  pz     Val( 2p)     0.98943       0.08743

    81    C   17  S      Cor( 1S)     1.99994     -11.00851
    82    C   17  S      Val( 2S)     1.07616      -0.19781
    83    C   17  px     Val( 2p)     0.88214       0.11545
    84    C   17  py     Val( 2p)     0.99501       0.07482
    85    C   17  pz     Val( 2p)     1.01171       0.07724

    86    O   18  S      Cor( 1S)     1.99999     -20.10935
    87    O   18  S      Val( 2S)     1.80506      -1.05682
    88    O   18  px     Val( 2p)     1.80345      -0.30879
    89    O   18  py     Val( 2p)     1.37913      -0.12092
    90    O   18  pz     Val( 2p)     1.25449      -0.13317

    91    C   19  S      Cor( 1S)     1.99997     -10.97299
    92    C   19  S      Val( 2S)     1.07804      -0.18342
    93    C   19  px     Val( 2p)     1.04290       0.07396
    94    C   19  py     Val( 2p)     0.98817       0.08671
    95    C   19  pz     Val( 2p)     1.03717       0.07804

    96    H   20  S      Val( 1S)     0.94976       0.05144

    97    H   21  S      Val( 1S)     0.97415       0.04057

    98    H   22  S      Val( 1S)     0.99393       0.04070

    99    H   23  S      Val( 1S)     0.96798       0.06909

   100    H   24  S      Val( 1S)     0.96156       0.06324

   101    H   25  S      Val( 1S)     0.95632       0.07498

   102    H   26  S      Val( 1S)     0.95869       0.06546

   103    H   27  S      Val( 1S)     0.95783       0.06290

   104    H   28  S      Val( 1S)     0.96206       0.05920

   105    H   29  S      Val( 1S)     0.98612       0.04820

   106    H   30  S      Val( 1S)     0.94422       0.09494

   107    H   31  S      Val( 1S)     0.96510       0.07053

   108    H   32  S      Val( 1S)     0.96816       0.06687

   109    H   33  S      Val( 1S)     0.96199       0.07315

   110    H   34  S      Val( 1S)     0.98321       0.05422

   111    H   35  S      Val( 1S)     0.96705       0.06655

   112    H   36  S      Val( 1S)     0.94335       0.08371

   113    H   37  S      Val( 1S)     0.95625       0.07594

   114    H   38  S      Val( 1S)     0.93827       0.08679


 Summary of Natural Population Analysis:                  
                                                          
                                       Natural Population 
                Natural  -----------------------------------------------
    Atom  No    Charge         Core      Valence    Rydberg      Total
 -----------------------------------------------------------------------
      C    1    0.07657      1.99991     3.92351    0.00000     5.92343
      C    2   -0.07389      1.99995     4.07394    0.00000     6.07389
      C    3   -0.00870      1.99994     4.00876    0.00000     6.00870
      C    4   -0.09520      1.99994     4.09526    0.00000     6.09520
      C    5    0.18689      1.99978     3.81334    0.00000     5.81311
      C    6   -0.12597      1.99991     4.12606    0.00000     6.12597
      C    7    0.24547      1.99996     3.75457    0.00000     5.75453
      O    8   -0.25487      1.99999     6.25487    0.00000     8.25487
      C    9    0.15188      1.99988     3.84824    0.00000     5.84812
      C   10   -0.08628      1.99996     4.08633    0.00000     6.08628
      C   11   -0.09145      1.99996     4.09149    0.00000     6.09145
      C   12    0.03937      1.99994     3.96070    0.00000     5.96063
      N   13   -0.27322      1.99999     5.27323    0.00000     7.27322
      C   14    0.10282      1.99994     3.89724    0.00000     5.89718
      C   15   -0.07653      1.99997     4.07656    0.00000     6.07653
      C   16   -0.06759      1.99997     4.06762    0.00000     6.06759
      C   17    0.03505      1.99994     3.96501    0.00000     5.96495
      O   18   -0.24213      1.99999     6.24214    0.00000     8.24213
      C   19   -0.14625      1.99997     4.14627    0.00000     6.14625
      H   20    0.05024      0.00000     0.94976    0.00000     0.94976
      H   21    0.02585      0.00000     0.97415    0.00000     0.97415
      H   22    0.00607      0.00000     0.99393    0.00000     0.99393
      H   23    0.03202      0.00000     0.96798    0.00000     0.96798
      H   24    0.03844      0.00000     0.96156    0.00000     0.96156
      H   25    0.04368      0.00000     0.95632    0.00000     0.95632
      H   26    0.04131      0.00000     0.95869    0.00000     0.95869
      H   27    0.04217      0.00000     0.95783    0.00000     0.95783
      H   28    0.03794      0.00000     0.96206    0.00000     0.96206
      H   29    0.01388      0.00000     0.98612    0.00000     0.98612
      H   30    0.05578      0.00000     0.94422    0.00000     0.94422
      H   31    0.03490      0.00000     0.96510    0.00000     0.96510
      H   32    0.03184      0.00000     0.96816    0.00000     0.96816
      H   33    0.03801      0.00000     0.96199    0.00000     0.96199
      H   34    0.01679      0.00000     0.98321    0.00000     0.98321
      H   35    0.03295      0.00000     0.96705    0.00000     0.96705
      H   36    0.05665      0.00000     0.94335    0.00000     0.94335
      H   37    0.04375      0.00000     0.95625    0.00000     0.95625
      H   38    0.06173      0.00000     0.93827    0.00000     0.93827
 =======================================================================
   * Total *   -0.00000     37.99887   100.00113    0.00000   138.00000

                                 Natural Population      
 --------------------------------------------------------
   Core                      37.99887 ( 99.9970% of  38)
   Valence                  100.00113 (100.0011% of 100)
   Natural Minimal Basis    138.00000 (100.0000% of 138)
   Natural Rydberg Basis      0.00000 (  0.0000% of 138)
 --------------------------------------------------------

    Atom  No          Natural Electron Configuration
 ----------------------------------------------------------------------------
      C    1      [core]2S( 1.08)2p( 2.84)
      C    2      [core]2S( 1.08)2p( 2.99)
      C    3      [core]2S( 1.08)2p( 2.93)
      C    4      [core]2S( 1.08)2p( 3.02)
      C    5      [core]2S( 1.06)2p( 2.75)
      C    6      [core]2S( 1.09)2p( 3.04)
      C    7      [core]2S( 1.08)2p( 2.67)
      O    8      [core]2S( 1.73)2p( 4.52)
      C    9      [core]2S( 1.09)2p( 2.76)
      C   10      [core]2S( 1.10)2p( 2.98)
      C   11      [core]2S( 1.09)2p( 3.00)
      C   12      [core]2S( 1.07)2p( 2.89)
      N   13      [core]2S( 1.45)2p( 3.82)
      C   14      [core]2S( 1.08)2p( 2.82)
      C   15      [core]2S( 1.08)2p( 2.99)
      C   16      [core]2S( 1.08)2p( 2.98)
      C   17      [core]2S( 1.08)2p( 2.89)
      O   18      [core]2S( 1.81)2p( 4.44)
      C   19      [core]2S( 1.08)2p( 3.07)
      H   20            1S( 0.95)
      H   21            1S( 0.97)
      H   22            1S( 0.99)
      H   23            1S( 0.97)
      H   24            1S( 0.96)
      H   25            1S( 0.96)
      H   26            1S( 0.96)
      H   27            1S( 0.96)
      H   28            1S( 0.96)
      H   29            1S( 0.99)
      H   30            1S( 0.94)
      H   31            1S( 0.97)
      H   32            1S( 0.97)
      H   33            1S( 0.96)
      H   34            1S( 0.98)
      H   35            1S( 0.97)
      H   36            1S( 0.94)
      H   37            1S( 0.96)
      H   38            1S( 0.94)


 NATURAL BOND ORBITAL ANALYSIS:

                       Occupancies       Lewis Structure    Low   High
           Occ.    -------------------  -----------------   occ   occ
  Cycle   Thresh.   Lewis   Non-Lewis     CR  BD  3C  LP    (L)   (NL)   Dev
 =============================================================================
   1(1)    1.90   134.41283   3.58717     19  43   0   7     3      3    0.45
   2(2)    1.90   134.41283   3.58717     19  43   0   7     3      3    0.45
   3(1)    1.80   134.34201   3.65799     19  42   0   8     3      3    0.45
   4(2)    1.80   134.34201   3.65799     19  42   0   8     3      3    0.45
   5(1)    1.70   134.34201   3.65799     19  42   0   8     3      3    0.45
   6(2)    1.70   134.34201   3.65799     19  42   0   8     3      3    0.45
   7(1)    1.60   135.51851   2.48149     19  44   0   6     1      3    0.43
   8(2)    1.60   136.13037   1.86963     19  45   0   5     0      3    0.43
   9(3)    1.60   136.09309   1.90691     19  45   0   5     0      3    0.45
  10(4)    1.60   136.13037   1.86963     19  45   0   5     0      3    0.43
  11(1)    1.50   136.13037   1.86963     19  45   0   5     0      3    0.43
  12(2)    1.50   136.09309   1.90691     19  45   0   5     0      3    0.45
  13(3)    1.50   136.13037   1.86963     19  45   0   5     0      3    0.43
  14(1)    1.60   136.13037   1.86963     19  45   0   5     0      3    0.43
 -----------------------------------------------------------------------------

 Structure accepted: RESONANCE keyword permits strongly delocalized structure

 --------------------------------------------------------
   Core                     37.99886 ( 99.997% of  38)
   Valence Lewis            98.13151 ( 98.132% of 100)
  ==================       ============================
   Total Lewis             136.13037 ( 98.645% of 138)
  -----------------------------------------------------
   Valence non-Lewis         1.86963 (  1.355% of 138)
   Rydberg non-Lewis         0.00000 (  0.000% of 138)
  ==================       ============================
   Total non-Lewis           1.86963 (  1.355% of 138)
 --------------------------------------------------------


       (Occupancy)   Bond orbital/ Coefficients/ Hybrids
 ---------------------------------------------------------------------------------
     1. (1.98529) BD ( 1) C   1 - C   2  
                ( 50.00%)   0.7071* C   1 s( 33.77%)p 1.96( 66.23%)
                                            0.0000  0.5811 -0.7437 -0.2821  0.1722
                ( 50.00%)   0.7071* C   2 s( 34.45%)p 1.90( 65.55%)
                                            0.0001  0.5869  0.7436  0.2830 -0.1500
     2. (1.65841) BD ( 2) C   1 - C   2  
                ( 45.62%)   0.6754* C   1 s(  0.00%)p 1.00(100.00%)
                                            0.0000  0.0007  0.3168 -0.2807  0.9060
                ( 54.38%)   0.7374* C   2 s(  0.00%)p 1.00(100.00%)
                                           -0.0001 -0.0027  0.2947 -0.2854  0.9120
     3. (1.98099) BD ( 1) C   1 - C   6  
                ( 49.44%)   0.7032* C   1 s( 34.60%)p 1.89( 65.40%)
                                            0.0001  0.5883  0.5596 -0.4727 -0.3426
                ( 50.56%)   0.7110* C   6 s( 35.61%)p 1.81( 64.39%)
                                            0.0000  0.5967 -0.5233  0.5115  0.3293
     4. (1.98738) BD ( 1) C   1 - C  19  
                ( 50.14%)   0.7081* C   1 s( 31.63%)p 2.16( 68.37%)
                                           -0.0000  0.5624  0.1827  0.7862  0.1793
                ( 49.86%)   0.7061* C  19 s( 25.59%)p 2.91( 74.41%)
                                            0.0001  0.5058 -0.1676 -0.8240 -0.1925
     5. (1.98977) BD ( 1) C   2 - C   3  
                ( 49.56%)   0.7040* C   2 s( 34.21%)p 1.92( 65.79%)
                                            0.0001  0.5849 -0.2048 -0.7658 -0.1717
                ( 50.44%)   0.7102* C   3 s( 34.33%)p 1.91( 65.67%)
                                            0.0000  0.5859  0.1894  0.7686  0.1733
     6. (1.98880) BD ( 1) C   2 - H  23  
                ( 51.62%)   0.7185* C   2 s( 31.34%)p 2.19( 68.66%)
                                           -0.0001  0.5598 -0.5641  0.5020  0.3411
                ( 48.38%)   0.6955* H  23 s(100.00%)
                                            1.0000
[...]
 NLMO      Total    Paramagnetic  Diamagnetic   Paramagnetic  Diamagnetic
   23       1.0482        0.2854       0.7627        -0.0350       1.0832
   31       0.6316        1.2192      -0.5876         0.0764       0.5552
   33       0.4289        1.8639      -1.4350        -0.5223       0.9513
   34      26.8652       -0.0653      26.9305         0.7704      26.0949
   38       0.2001       -1.1198       1.3198        -0.7172       0.9172
 Sum       29.1739        2.1835      26.9905        -0.4277      29.6017

 Contributions to Isotropic shielding for atom   23 (    25.8670 ppm):
                         Standard Origin              Atomic Origin
 NLMO      Total    Paramagnetic  Diamagnetic   Paramagnetic  Diamagnetic
    1      -1.3360       -2.7897       1.4537        -1.9170       0.5810
    2       0.9841        1.3085      -0.3244        -2.3685       3.3526
    4      -0.6784        0.6718      -1.3502        -1.7559       1.0775
    5      -2.0159       -1.2007      -0.8152        -2.7183       0.7023
    6      27.0026        0.9679      26.0346         1.5179      25.4847
    9      -0.0731       -0.3270       0.2540        -1.1767       1.1037
   13       0.5200        0.8120      -0.2919        -0.7353       1.2553
   44      -0.1410       -1.0188       0.8777        -0.9369       0.7958
 Sum       24.2623       -1.5760      25.8382       -10.0908      34.3530

 Contributions to Isotropic shielding for atom   24 (    25.3062 ppm):
                         Standard Origin              Atomic Origin
 NLMO      Total    Paramagnetic  Diamagnetic   Paramagnetic  Diamagnetic
    2       1.3298        0.8753       0.4545         0.2698       1.0599
    5      -1.9963       -2.0693       0.0730        -2.7331       0.7369
    6      -0.1123        0.1798      -0.2921        -1.2404       1.1281
    7      -1.9264       -2.5235       0.5971        -2.6446       0.7181
    8       0.3588        1.3059      -0.9472        -2.4707       2.8295
    9      26.9049        1.1002      25.8047         1.5943      25.3106
   11      -0.1089        0.5261      -0.6349        -1.2157       1.1068
   13       0.5478        0.7243      -0.1765        -0.8291       1.3769
 Sum       24.9974        0.1188      24.8786        -9.2694      34.2668

 Contributions to Isotropic shielding for atom   25 (    25.7029 ppm):
                         Standard Origin              Atomic Origin
 NLMO      Total    Paramagnetic  Diamagnetic   Paramagnetic  Diamagnetic
    2       1.2223       -0.3090       1.5312        -0.0121       1.2344
    7      -1.8102       -1.0496      -0.7606        -2.4904       0.6802
    8       0.1612        0.3025      -0.1413        -3.2375       3.3986
    9      -0.0558       -0.8196       0.7638        -1.1511       1.0953
   10      -1.0316       -2.5162       1.4846        -1.5884       0.5568
   11      26.5610        1.0639      25.4971         1.3263      25.2347
   14      -0.5170        0.4753      -0.9923        -2.1071       1.5901
 Sum       24.5299       -2.8527      27.3826        -9.2602      33.7901

 Contributions to Isotropic shielding for atom   26 (    32.8404 ppm):
                         Standard Origin              Atomic Origin
 NLMO      Total    Paramagnetic  Diamagnetic   Paramagnetic  Diamagnetic
   13      -0.3205       -0.6718       0.3513        -1.5205       1.2000
   21       1.5880       -0.3798       1.9678         0.8073       0.7807
   25       1.2139        0.4391       0.7748         0.2414       0.9725
   26      26.0092        0.3075      25.7017         0.3641      25.6451
   27       1.9538        1.3254       0.6284         0.0794       1.8745
   28       0.2249       -0.9543       1.1792        -0.8679       1.0928
   29       0.0620       -0.8314       0.8934        -0.9508       1.0128
 Sum       30.7313       -0.7652      31.4966        -1.8469      32.5783

 Contributions to Isotropic shielding for atom   27 (    32.0930 ppm):
                         Standard Origin              Atomic Origin
 NLMO      Total    Paramagnetic  Diamagnetic   Paramagnetic  Diamagnetic
   19      -0.0610        0.1376      -0.1986        -1.2958       1.2348
   21       1.2116        0.9297       0.2820         0.2910       0.9207
   22       0.0647        0.0276       0.0371        -0.9584       1.0231
   25       0.9225        1.9597      -1.0371        -0.0388       0.9613
   26       2.1488        0.9714       1.1774         0.2789       1.8699
   27      26.1266       -0.0009      26.1275         0.4603      25.6663
 Sum       30.4133        4.0251      26.3882        -1.2627      31.6761

 Contributions to Isotropic shielding for atom   28 (    31.8040 ppm):
                         Standard Origin              Atomic Origin
 NLMO      Total    Paramagnetic  Diamagnetic   Paramagnetic  Diamagnetic
   25       1.0553        0.2732       0.7821         0.0176       1.0377
   26       0.1393        0.1915      -0.0522        -0.9211       1.0604
   28       0.9460        0.3864       0.5596        -0.2844       1.2304
   29      26.2164        0.2666      25.9498         0.6759      25.5404
   30       1.3387        1.8353      -0.4966        -0.3540       1.6928
   32      -0.1558        0.4812      -0.6371        -1.0521       0.8963
 Sum       29.5399        3.4341      26.1057        -1.9182      31.4581

 Contributions to Isotropic shielding for atom   29 (    32.6779 ppm):
                         Standard Origin              Atomic Origin
 NLMO      Total    Paramagnetic  Diamagnetic   Paramagnetic  Diamagnetic
   25       1.0036        0.3827       0.6209         0.0693       0.9343
   29       1.7680        2.1259      -0.3579        -0.0499       1.8178
   30      26.7937        0.2750      26.5187         0.8107      25.9830
   41       0.1114       -1.4754       1.5868        -0.6899       0.8012
 Sum       29.6766        1.3081      28.3685         0.1402      29.5364

 Contributions to Isotropic shielding for atom   30 (    31.1384 ppm):
                         Standard Origin              Atomic Origin
 NLMO      Total    Paramagnetic  Diamagnetic   Paramagnetic  Diamagnetic
   16      -0.1882        0.0471      -0.2353        -1.1845       0.9964
   18       0.1229       -0.3129       0.4357        -1.1729       1.2957
   33       1.7733       -1.1935       2.9668         1.1984       0.5749
   35       0.7463        1.1037      -0.3573        -0.1709       0.9173
   36      25.6400        0.2802      25.3599         0.3709      25.2691
   37       1.9125        1.1611       0.7515         0.0995       1.8131
   38       0.3705       -1.0623       1.4328        -0.0332       0.4038
   40      -0.0007       -1.7053       1.7047        -1.1489       1.1482
   68      -0.1385        0.1842      -0.3227         0.9159      -1.0544
 Sum       30.2382       -1.4977      31.7360        -1.1258      31.3640

 Contributions to Isotropic shielding for atom   31 (    31.9435 ppm):
                         Standard Origin              Atomic Origin
 NLMO      Total    Paramagnetic  Diamagnetic   Paramagnetic  Diamagnetic
   18       0.0782       -0.0994       0.1776        -1.0064       1.0846
   33       1.4893        0.0807       1.4086         0.8042       0.6852
   35       0.5306        2.6616      -2.1310        -0.2360       0.7667
   36       2.2094        0.8538       1.3557         0.3998       1.8097
   37      26.3133        0.0363      26.2770         0.4772      25.8361
   39       0.0657       -1.0955       1.1612        -1.0626       1.1283
 Sum       30.6866        2.4376      28.2490        -0.6238      31.3104

 Contributions to Isotropic shielding for atom   32 (    32.0626 ppm):
                         Standard Origin              Atomic Origin
 NLMO      Total    Paramagnetic  Diamagnetic   Paramagnetic  Diamagnetic
   31      -0.2344        0.4308      -0.6652        -1.1091       0.8747
   35       1.1730        0.1731       0.9999         0.2799       0.8931
   37      -0.0197        0.8165      -0.8362        -1.0911       1.0714
   38       0.8704        1.0371      -0.1667         0.0900       0.7805
   39      26.4844       -0.2356      26.7201         0.5800      25.9045
   40       1.9164        2.9159      -0.9995         0.1090       1.8074
   41      -0.1954        0.1452      -0.3406        -1.3715       1.1761
 Sum       29.9947        5.2829      24.7118        -2.5128      32.5075

 Contributions to Isotropic shielding for atom   33 (    31.8979 ppm):
                         Standard Origin              Atomic Origin
 NLMO      Total    Paramagnetic  Diamagnetic   Paramagnetic  Diamagnetic
   31      -0.1224        0.3221      -0.4445        -1.0523       0.9299
   35       1.3526       -0.5828       1.9354         0.4347       0.9179
   36      -0.1484        0.7380      -0.8864        -1.3488       1.2004
   38       1.0595        0.4255       0.6339         0.2788       0.7807
   39       1.8023        3.1069      -1.3046         0.0386       1.7637
   40      26.2436       -0.0033      26.2469         0.5248      25.7188
   42      -0.0759        0.0153      -0.0912        -1.2373       1.1614
 Sum       30.1113        4.0217      26.0896        -2.3616      32.4729

 Contributions to Isotropic shielding for atom   34 (    32.3739 ppm):
                         Standard Origin              Atomic Origin
 NLMO      Total    Paramagnetic  Diamagnetic   Paramagnetic  Diamagnetic
   28      -0.4543        1.0258      -1.4801        -1.3594       0.9051
   32       1.5092       -1.0121       2.5213         0.8801       0.6291
   35       0.2988       -0.8018       1.1006        -0.0156       0.3144
   38       0.4827        1.6208      -1.1381        -0.4467       0.9294
   39      -0.0408       -0.6729       0.6322        -1.2058       1.1650
   41      26.8247        0.1834      26.6413         0.9017      25.9230
   42       1.7002        2.1475      -0.4473        -0.1567       1.8569
   67       0.7396       -0.2654       1.0050         0.3998       0.3399
 Sum       31.0602        2.2254      28.8348        -1.0026      32.0628

 Contributions to Isotropic shielding for atom   35 (    31.6485 ppm):
                         Standard Origin              Atomic Origin
 NLMO      Total    Paramagnetic  Diamagnetic   Paramagnetic  Diamagnetic
   32       1.5703       -1.0094       2.5798         0.3321       1.2382
   35       0.2651       -0.8350       1.1001         0.0481       0.2170
   38       0.4818        1.2435      -0.7617        -0.4292       0.9110
   40       0.0029       -0.5923       0.5952        -1.1180       1.1209
   41       1.3480        2.0227      -0.6748        -0.3690       1.7169
   42      26.2617        0.3091      25.9526         0.6895      25.5722
 Sum       29.9299        1.1387      28.7912        -0.8465      30.7764

 Contributions to Isotropic shielding for atom   36 (    31.2182 ppm):
                         Standard Origin              Atomic Origin
 NLMO      Total    Paramagnetic  Diamagnetic   Paramagnetic  Diamagnetic
    2      -0.6156       -0.6390       0.0234        -1.4573       0.8417
    4       1.8407       -1.0308       2.8715         0.9817       0.8590
    8       0.5337       -0.3023       0.8360        -0.5715       1.1052
   15      -0.1847        0.1294      -0.3141        -1.1037       0.9189
   18       0.0907       -0.0847       0.1754        -1.2597       1.3504
   43      25.7554        0.3361      25.4193         0.3362      25.4192
   44       1.8745        1.7110       0.1635        -0.0308       1.9053
   45       2.1679        0.4629       1.7051         0.3297       1.8382
 Sum       31.4626        0.5825      30.8801        -2.7754      34.2380

 Contributions to Isotropic shielding for atom   37 (    30.9932 ppm):
                         Standard Origin              Atomic Origin
 NLMO      Total    Paramagnetic  Diamagnetic   Paramagnetic  Diamagnetic
    1      -0.9305        0.0247      -0.9552        -1.8330       0.9025
    2      -0.6244       -0.0989      -0.5254        -2.2242       1.5999
    4       1.0483        0.9050       0.1433         0.2780       0.7703
    6      -0.0208       -1.4876       1.4668        -0.9603       0.9395
   18       0.0754        0.0117       0.0637        -0.9368       1.0122
   43       2.0456        1.3833       0.6623         0.0618       1.9839
   44      26.2618       -0.0801      26.3419         0.5023      25.7595
   45       2.1615        2.5580      -0.3965         0.1996       1.9619
 Sum       30.0171        3.2161      26.8010        -4.9125      34.9297

 Contributions to Isotropic shielding for atom   38 (    30.6663 ppm):
                         Standard Origin              Atomic Origin
 NLMO      Total    Paramagnetic  Diamagnetic   Paramagnetic  Diamagnetic
    2      -0.8624       -0.4232      -0.4391        -1.8448       0.9824
    4       1.7171        0.1465       1.5706         0.8387       0.8784
    8       0.6040       -0.1816       0.7856        -0.4545       1.0585
   15      -0.2583        0.0558      -0.3141        -1.1500       0.8917
   18       0.1549        0.0956       0.0593        -1.0930       1.2479
   43       2.2726        0.2110       2.0616         0.4807       1.7919
   44       1.8061        2.6120      -0.8058        -0.0421       1.8483
   45      25.6479        0.1827      25.4652         0.3512      25.2968
 Sum       31.0820        2.6987      28.3833        -2.9138      33.9958
 
 1\1\GINC-GNOSIE-MM\SP\RHF\STO-3G\C16H19N1O2\MBENIDD\18-May-2026\0\\# n
 mr=giao hf/sto-3g pop=nbo\\Title Card Required\\0,1\C,0,0.,0.,0.\C,0,1
 .4074,0.,0.\C,0,2.1262,1.1942,0.\C,0,1.4484,2.4077,0.0148\C,0,0.0535,2
 .4272,0.03\C,0,-0.6793,1.2362,-0.0092\C,0,-2.1545,1.3451,-0.1247\O,0,-
 0.5124,3.6717,0.0767\C,0,-1.7973,3.6867,0.7027\C,0,-2.7833,2.718,0.042
 9\C,0,-1.6842,3.5262,2.2303\C,0,-3.0566,3.5411,2.8975\N,0,-3.9101,2.53
 78,2.2718\C,0,-4.0957,2.7784,0.8339\C,0,-5.2207,1.8091,0.5048\C,0,-6.1
 273,1.8942,1.7318\C,0,-5.259,2.4865,2.8415\O,0,-2.8096,0.3684,-0.4783\
 C,0,-0.7072,-1.3283,-0.0092\H,0,-2.9692,3.0609,-0.985\H,0,-2.1796,4.70
 19,0.5265\H,0,-4.502,3.7943,0.6977\H,0,1.9555,-0.9409,-0.0062\H,0,3.21
 31,1.1764,-0.0059\H,0,2.0051,3.3411,0.0268\H,0,-1.164,2.5955,2.4884\H,
 0,-1.0602,4.3316,2.6367\H,0,-2.9356,3.3195,3.9642\H,0,-3.4949,4.5443,2
 .8184\H,0,-4.8857,0.7738,0.4088\H,0,-5.7505,2.0809,-0.4133\H,0,-6.9846
 ,2.5465,1.5311\H,0,-6.5109,0.9041,1.9998\H,0,-5.6347,3.4846,3.0995\H,0
 ,-5.2836,1.8676,3.7439\H,0,-1.4647,-1.3696,0.7799\H,0,-0.0107,-2.1517,
 0.185\H,0,-1.1661,-1.511,-0.9857\\Version=EM64L-G16RevB.01\State=1-A\H
 F=-811.0580196\RMSD=4.482e-09\Dipole=-0.178604,0.5102253,0.3548223\Qua
 drupole=2.1831865,-0.7359686,-1.4472179,-4.8137674,-0.4913674,0.574200
 9\PG=C01 [X(C16H19N1O2)]\\@


                                                                                    A
                                                                                  AA
                                                                                 AAA
                                                                                AAAA
                                                                               AAAAA
                                                                              AAAAAA   KKKKKKKK
                                                                             AAAAAAA   KKKKKKKK
                                                                            AAAAAAAA   KKKKKKKK
                                       ZZZZZZZZZZZZZZZZZZZZ                AAAA  AAA   KKKKKKKK
                                       ZZZZZZZZZZZZZZZZZZZ                AAAA   AAA   KKKKKKKK          K
                                       ZZZZZZZZZZZZZZZZZZ                AAAA    AAA   KKKKKKKK         KKK
                                       ZZZZZZZZZZZZZZZZZ                AAAA     AAA   KKKKKKKK        KKKKK
                                       ZZZZZZZZZZZZZZZZ                AAAA      AAA   KKKKKKKK       KKKKKKK
                                                ZZZZZZ                AAAA       AAA   KKKKKKKK      KKKKKKK
                                               ZZZZZZ                AAAA        AAA   KKKKKKKK     KKKKKKK
                                              ZZZZZZ                AAAA         AAA   KKKKKKKK    KKKKKKK
                                             ZZZZZZ                AAAA          AAA   KKKKKKKK   KKKKKKK
                                            ZZZZZZ                AAAAAAAAAAAAAAAAAA   KKKKKKKK  KKKKKKK
                                           ZZZZZZ                AAAAAAAAAAAAAAAAAAA   KKKKKKKK KKKKKKK
                                          ZZZZZZ                AAAAAAAAAAAAAAAAAAAA   KKKKKKKKKKKKKKK
                                         ZZZZZZ                AAAAAAAAAAAAAAAAAAAAA   KKKKKKKKKKKKKK
                                        ZZZZZZ                AAAAAA        AAAAAAAA   KKKKKKKKKKKKK
                                       ZZZZZZ                AAAAAA         AAAAAAAA   KKKKKKKKKKKK
                                      ZZZZZZ                AAAAAA          AAAAAAAA   KKKKKKKKKKK
                                     ZZZZZZ                AAAAAA           AAAAAAAA   KKKKKKKKKKKK
                                    ZZZZZZ                AAAAAA            AAAAAAAA   KKKKKKKKKKKKK
                                   ZZZZZZ                AAAAAA             AAAAAAAA   KKKKKKKKKKKKKK
                                  ZZZZZZ                AAAAAA              AAAAAAAA   KKKKKKKKKKKKKKK
                                 ZZZZZZ                AAAAAA               AAAAAAAA   KKKKK KKKKKKKKKK
                                ZZZZZZ                AAAAAA                AAAAAAAA   KKKKK  KKKKKKKKKK
                               ZZZZZZ                AAAAAA                            KKKKK   KKKKKKKKKK
                              ZZZZZZ                AAAAAA                             KKKKK    KKKKKKKKKK
                             ZZZZZZ                                                    KKKKK     KKKKKKKKKK
                            ZZZZZZ                                                     KKKKK      KKKKKKKKKK
                           ZZZZZZ                                                      KKKKK       KKKKKKKKKK
                          ZZZZZZ                                                       KKKKK        KKKKKKKKKK
                         ZZZZZZZZZZZZZZZZZZZZZZZZZZZZZZZZZZZZZZZZ                      KKKKK         KKKKKKKKKK
                        ZZZZZZZZZZZZZZZZZZZZZZZZZZZZZZZZZZZZZZZZZ                      KKKKK          KKKKKKKKKK
                       ZZZZZZZZZZZZZZZZZZZZZZZZZZZZZZZZZZZZZZZZZZ                      KKKKK           KKKKKKKKKK
                       ZZZZZZZZZZZZZZZZZZZZZZZZZZZZZZZZZZZZZZZZZZ                      KKKKK            KKKKKKKKKK
                       ZZZZZZZZZZZZZZZZZZZZZZZZZZZZZZZZZZZZZZZZZZ                      KKKKK             KKKKKKKKKK
                       ZZZZZZZZZZZZZZZZZZZZZZZZZZZZZZZZZZZZZZZZZZ                      KKKKK              KKKKKKKKKK
                       ZZZZZZZZZZZZZZZZZZZZZZZZZZZZZZZZZZZZZZZZZZ                      KKKKK               KKKKKKKKKK
                       ZZZZZZZZZZZZZZZZZZZZZZZZZZZZZZZZZZZZZZZZZZ                      KKKKK                KKKKKKKKKK
                       ZZZZZZZZZZZZZZZZZZZZZZZZZZZZZZZZZZZZZZZZZZ                      KKKKK
                                                                                       KKKKK
                                                                                          (J.P.)
 Job cpu time:       0 days  0 hours  3 minutes 37.8 seconds.
 Elapsed time:       0 days  0 hours  1 minutes 56.1 seconds.
 File lengths (MBytes):  RWF=     14 Int=      0 D2E=      0 Chk=      2 Scr=      1
 Normal termination of Gaussian 16 at Mon May 18 11:42:36 2026.
