 Entering Gaussian System, Link 0=g16
 Input=2_isoelaeocarpine_c_6.gjf
 Output=2_isoelaeocarpine_c_6.log
 Initial command:
 /opt/gaussian/g16/l1.exe "/home/mbenidd/Bureau/Elaeocarpines/HF_NMR/Isoelaeocarpine/2_isoelaeocarpine_c_6/Gau-13116.inp" -scrdir="/home/mbenidd/Bureau/Elaeocarpines/HF_NMR/Isoelaeocarpine/2_isoelaeocarpine_c_6/"
 Entering Link 1 = /opt/gaussian/g16/l1.exe PID=     13118.
  
 Copyright (c) 1988-2017, Gaussian, Inc.  All Rights Reserved.
  
 This is part of the Gaussian(R) 16 program.  It is based on
 the Gaussian(R) 09 system (copyright 2009, Gaussian, Inc.),
 the Gaussian(R) 03 system (copyright 2003, Gaussian, Inc.),
 the Gaussian(R) 98 system (copyright 1998, Gaussian, Inc.),
 the Gaussian(R) 94 system (copyright 1995, Gaussian, Inc.),
 the Gaussian 92(TM) system (copyright 1992, Gaussian, Inc.),
 the Gaussian 90(TM) system (copyright 1990, Gaussian, Inc.),
 the Gaussian 88(TM) system (copyright 1988, Gaussian, Inc.),
 the Gaussian 86(TM) system (copyright 1986, Carnegie Mellon
 University), and the Gaussian 82(TM) system (copyright 1983,
 Carnegie Mellon University). Gaussian is a federally registered
 trademark of Gaussian, Inc.
  
 This software contains proprietary and confidential information,
 including trade secrets, belonging to Gaussian, Inc.
  
 This software is provided under written license and may be
 used, copied, transmitted, or stored only in accord with that
 written license.
  
 The following legend is applicable only to US Government
 contracts under FAR:
  
                    RESTRICTED RIGHTS LEGEND
  
 Use, reproduction and disclosure by the US Government is
 subject to restrictions as set forth in subparagraphs (a)
 and (c) of the Commercial Computer Software - Restricted
 Rights clause in FAR 52.227-19.
  
 Gaussian, Inc.
 340 Quinnipiac St., Bldg. 40, Wallingford CT 06492
  
  
 ---------------------------------------------------------------
 Warning -- This program may not be used in any manner that
 competes with the business of Gaussian, Inc. or will provide
 assistance to any competitor of Gaussian, Inc.  The licensee
 of this program is prohibited from giving any competitor of
 Gaussian, Inc. access to this program.  By using this program,
 the user acknowledges that Gaussian, Inc. is engaged in the
 business of creating and licensing software in the field of
 computational chemistry and represents and warrants to the
 licensee that it is not a competitor of Gaussian, Inc. and that
 it will not use this program in any manner prohibited above.
 ---------------------------------------------------------------
  

 Cite this work as:
 Gaussian 16, Revision B.01,
 M. J. Frisch, G. W. Trucks, H. B. Schlegel, G. E. Scuseria, 
 M. A. Robb, J. R. Cheeseman, G. Scalmani, V. Barone, 
 G. A. Petersson, H. Nakatsuji, X. Li, M. Caricato, A. V. Marenich, 
 J. Bloino, B. G. Janesko, R. Gomperts, B. Mennucci, H. P. Hratchian, 
 J. V. Ortiz, A. F. Izmaylov, J. L. Sonnenberg, D. Williams-Young, 
 F. Ding, F. Lipparini, F. Egidi, J. Goings, B. Peng, A. Petrone, 
 T. Henderson, D. Ranasinghe, V. G. Zakrzewski, J. Gao, N. Rega, 
 G. Zheng, W. Liang, M. Hada, M. Ehara, K. Toyota, R. Fukuda, 
 J. Hasegawa, M. Ishida, T. Nakajima, Y. Honda, O. Kitao, H. Nakai, 
 T. Vreven, K. Throssell, J. A. Montgomery, Jr., J. E. Peralta, 
 F. Ogliaro, M. J. Bearpark, J. J. Heyd, E. N. Brothers, K. N. Kudin, 
 V. N. Staroverov, T. A. Keith, R. Kobayashi, J. Normand, 
 K. Raghavachari, A. P. Rendell, J. C. Burant, S. S. Iyengar, 
 J. Tomasi, M. Cossi, J. M. Millam, M. Klene, C. Adamo, R. Cammi, 
 J. W. Ochterski, R. L. Martin, K. Morokuma, O. Farkas, 
 J. B. Foresman, and D. J. Fox, Gaussian, Inc., Wallingford CT, 2016.
 
 ******************************************
 Gaussian 16:  EM64L-G16RevB.01 20-Dec-2017
                30-Apr-2026 
 ******************************************
 %nprocshared=4
 Will use up to    4 processors via shared memory.
 ----------------------------
 # nmr=giao hf/sto-3g pop=nbo
 ----------------------------
 1/38=1,172=1/1;
 2/12=2,17=6,18=5,40=1/2;
 3/6=3,11=9,25=1,30=1/1,2,3,8;
 4//1;
 5/5=2,38=5/2;
 8/6=1,10=90,11=11/1;
 10/13=100,45=16/2;
 6/7=2,8=2,9=2,10=2,28=1,40=1,64=1/1,7;
 99/9=1/99;
 -------------------
 Title Card Required
 -------------------
 Symbolic Z-matrix:
 Charge =  0 Multiplicity = 1
 C                     0.        0.        0. 
 C                     1.4074    0.        0. 
 C                     2.1268    1.194     0. 
 C                     1.4502    2.4083    0.0112 
 C                     0.0557    2.43      0.032 
 C                    -0.6775    1.2367    0.0061 
 C                    -2.1532    1.348    -0.0544 
 O                    -0.5052    3.6784    0.0431 
 C                    -1.8284    3.7045    0.5963 
 C                    -2.7507    2.7333   -0.1236 
 C                    -2.3428    5.1483    0.4895 
 C                    -3.4964    5.3037   -0.5055 
 N                    -3.1958    4.6145   -1.7602 
 C                    -2.9807    3.1551   -1.584 
 C                    -4.2021    2.4619   -2.2114 
 C                    -5.173     3.5806   -2.5356 
 C                    -4.2652    4.771    -2.7527 
 O                    -2.8786    0.3559   -0.08 
 C                    -0.7074   -1.3278   -0.021 
 H                    -3.7027    2.703     0.425 
 H                    -1.7428    3.4457    1.6614 
 H                    -2.1017    2.8828   -2.1837 
 H                     1.9565   -0.9404   -0.0092 
 H                     3.2138    1.1761   -0.0097 
 H                     2.0074    3.3417    0.0104 
 H                    -2.7037    5.4746    1.4729 
 H                    -1.5259    5.8277    0.2143 
 H                    -4.4272    4.9339   -0.0562 
 H                    -3.6424    6.3748   -0.6919 
 H                    -4.673     1.7134   -1.5673 
 H                    -3.9008    1.9611   -3.1399 
 H                    -5.8442    3.7548   -1.6863 
 H                    -5.7854    3.3545   -3.4133 
 H                    -4.7979    5.7252   -2.6795 
 H                    -3.8223    4.7243   -3.7552 
 H                    -1.3538   -1.433     0.8559 
 H                     0.0035   -2.1612    0.0075 
 H                    -1.2919   -1.4368   -0.9399 
 
                          Input orientation:                          
 ---------------------------------------------------------------------
 Center     Atomic      Atomic             Coordinates (Angstroms)
 Number     Number       Type             X           Y           Z
 ---------------------------------------------------------------------
      1          6           0        0.000000    0.000000    0.000000
      2          6           0        1.407400    0.000000    0.000000
      3          6           0        2.126800    1.194000    0.000000
      4          6           0        1.450200    2.408300    0.011200
      5          6           0        0.055700    2.430000    0.032000
      6          6           0       -0.677500    1.236700    0.006100
      7          6           0       -2.153200    1.348000   -0.054400
      8          8           0       -0.505200    3.678400    0.043100
      9          6           0       -1.828400    3.704500    0.596300
     10          6           0       -2.750700    2.733300   -0.123600
     11          6           0       -2.342800    5.148300    0.489500
     12          6           0       -3.496400    5.303700   -0.505500
     13          7           0       -3.195800    4.614500   -1.760200
     14          6           0       -2.980700    3.155100   -1.584000
     15          6           0       -4.202100    2.461900   -2.211400
     16          6           0       -5.173000    3.580600   -2.535600
     17          6           0       -4.265200    4.771000   -2.752700
     18          8           0       -2.878600    0.355900   -0.080000
     19          6           0       -0.707400   -1.327800   -0.021000
     20          1           0       -3.702700    2.703000    0.425000
     21          1           0       -1.742800    3.445700    1.661400
     22          1           0       -2.101700    2.882800   -2.183700
     23          1           0        1.956500   -0.940400   -0.009200
     24          1           0        3.213800    1.176100   -0.009700
     25          1           0        2.007400    3.341700    0.010400
     26          1           0       -2.703700    5.474600    1.472900
     27          1           0       -1.525900    5.827700    0.214300
     28          1           0       -4.427200    4.933900   -0.056200
     29          1           0       -3.642400    6.374800   -0.691900
     30          1           0       -4.673000    1.713400   -1.567300
     31          1           0       -3.900800    1.961100   -3.139900
     32          1           0       -5.844200    3.754800   -1.686300
     33          1           0       -5.785400    3.354500   -3.413300
     34          1           0       -4.797900    5.725200   -2.679500
     35          1           0       -3.822300    4.724300   -3.755200
     36          1           0       -1.353800   -1.433000    0.855900
     37          1           0        0.003500   -2.161200    0.007500
     38          1           0       -1.291900   -1.436800   -0.939900
 ---------------------------------------------------------------------
                    Distance matrix (angstroms):
                    1          2          3          4          5
     1  C    0.000000
     2  C    1.407400   0.000000
     3  C    2.439040   1.393977   0.000000
     4  C    2.811248   2.408706   1.390121   0.000000
     5  C    2.430849   2.780830   2.412089   1.394824   0.000000
     6  C    1.410131   2.424102   2.804632   2.428946   1.400792
     7  C    2.540932   3.807615   4.283115   3.756731   2.461184
     8  O    3.713181   4.146146   3.619603   2.331901   1.368662
     9  C    4.173960   4.954725   4.722477   3.573751   2.343633
    10  C    3.879762   4.977550   5.116124   4.215609   2.827027
    11  C    5.677439   6.388161   5.987773   4.703533   3.653938
    12  C    6.372564   7.240996   6.983233   5.754926   4.600486
    13  N    5.882606   6.751397   6.567206   5.439714   4.307699
    14  C    4.620420   5.631974   5.695746   4.768149   3.515246
    15  C    5.348728   6.512890   6.822964   6.073822   4.812767
    16  C    6.783059   7.908959   8.087781   7.192166   5.937656
    17  C    6.966472   7.906844   7.824957   6.774016   5.648452
    18  O    2.901621   4.301495   5.075711   4.791573   3.595073
    19  C    1.504629   2.497173   3.793759   4.314478   3.834865
    20  H    4.604001   5.796547   6.036620   5.177882   3.788740
    21  H    4.203623   4.955488   4.775375   3.740937   2.630816
    22  H    4.182849   5.039133   5.049832   4.202229   3.125497
    23  H    2.170790   1.089012   2.141203   3.386820   3.869668
    24  H    3.422253   2.155548   1.087191   2.151520   3.398176
    25  H    3.898297   3.395153   2.151042   1.087064   2.154251
    26  H    6.280977   7.002987   6.620174   5.365971   4.354316
    27  H    6.027967   6.527807   5.904178   4.537700   3.752207
    28  H    6.629225   7.641275   7.546186   6.397424   5.135532
    29  H    7.374543   8.161941   7.784798   6.493231   5.455403
    30  H    5.218151   6.508720   6.997391   6.361456   5.043003
    31  H    5.377837   6.471621   6.839545   6.225963   5.092613
    32  H    7.148203   8.338335   8.540383   7.609392   6.286213
    33  H    7.508271   8.639425   8.883765   8.060794   6.844212
    34  H    7.935835   8.857956   8.698446   7.568385   6.462817
    35  H    7.143565   7.985631   7.871235   6.881052   5.886050
    36  H    2.149146   3.226496   4.443903   4.830271   4.193837
    37  H    2.161216   2.577165   3.970620   4.793045   4.591562
    38  H    2.148677   3.199067   4.414978   4.817520   4.208653
                    6          7          8          9         10
     6  C    0.000000
     7  C    1.481127   0.000000
     8  O    2.448051   2.855902   0.000000
     9  C    2.786206   2.466171   1.434423   0.000000
    10  C    2.560233   1.510249   2.441981   1.520567   0.000000
    11  C    4.278728   3.843703   2.395131   1.536415   2.524777
    12  C    4.974778   4.201814   3.448165   2.560005   2.703493
    13  N    4.568499   3.829725   3.371573   2.872451   2.532881
    14  C    3.393141   2.507996   3.008222   2.526528   1.537395
    15  C    4.340648   3.176699   4.497745   3.880939   2.557172
    16  C    5.671298   4.501116   5.333631   4.583721   3.521818
    17  C    5.742286   4.843376   4.811224   4.276823   3.654873
    18  O    2.372354   1.229277   4.084995   3.573993   2.381237
    19  C    2.564817   3.041605   5.010692   5.192470   4.547322
    20  H    3.387823   2.113480   3.364708   2.131982   1.099174
    21  H    2.958811   2.740938   2.050536   1.099428   2.170162
    22  H    3.087590   2.625297   2.853144   2.911749   2.165078
    23  H    3.417302   4.704089   5.234120   6.022225   5.972176
    24  H    3.891804   5.369938   4.482773   5.673079   6.165477
    25  H    3.411705   4.614069   2.535270   3.897212   4.798710
    26  H    4.921055   4.434470   3.178689   2.160517   3.172656
    27  H    4.673373   4.531381   2.385504   2.178396   3.345089
    28  H    5.266253   4.246146   4.119251   2.948040   2.767279
    29  H    5.973099   5.281367   4.201526   3.475710   3.791915
    30  H    4.320515   2.961718   4.881103   4.091136   2.611456
    31  H    4.561988   3.598654   4.960918   4.614485   3.319200
    32  H    5.991647   4.698858   5.612627   4.619463   3.613203
    33  H    6.501386   5.338645   6.319187   5.644222   4.518564
    34  H    6.658587   5.748519   5.479892   4.861278   4.435664
    35  H    6.016685   5.280267   5.150159   4.893994   4.277958
    36  H    2.882159   3.033422   5.244728   5.165902   4.502089
    37  H    3.465471   4.119426   5.861823   6.173247   5.617734
    38  H    2.901725   3.046483   5.267870   5.392653   4.492680
                   11         12         13         14         15
    11  C    0.000000
    12  C    1.531329   0.000000
    13  N    2.464488   1.462747   0.000000
    14  C    2.946042   2.458778   1.485652   0.000000
    15  C    4.238939   3.388795   2.418658   1.538173   0.000000
    16  C    4.429328   3.146644   2.362100   2.427503   1.516325
    17  C    3.788118   2.434077   1.467367   2.372116   2.372537
    18  O    4.855771   5.004343   4.589048   3.179302   3.275630
    19  C    6.698882   7.210413   6.672921   5.263768   5.601125
    20  H    2.798746   2.769843   2.947182   2.182146   2.694093
    21  H    2.152254   3.350035   3.896749   3.485608   4.691972
    22  H    3.512352   3.259187   2.091696   1.098375   2.142336
    23  H    7.470271   8.304771   7.776189   6.605230   7.372495
    24  H    6.848604   7.893648   7.481298   6.690792   7.841960
    25  H    4.734721   5.865783   5.641661   5.240045   6.653445
    26  H    1.097176   2.138141   3.381548   3.847265   4.989552
    27  H    1.097563   2.162304   2.856409   3.534560   4.937072
    28  H    2.165290   1.097730   2.126494   2.755116   3.287300
    29  H    2.142188   1.096958   2.106982   3.405900   4.234729
    30  H    4.632364   3.924546   3.261244   2.223209   1.094013
    31  H    5.075249   4.275111   3.072642   2.166344   1.097130
    32  H    4.351523   3.050499   2.785421   2.927411   2.154951
    33  H    5.504640   4.182607   3.320598   3.354466   2.179022
    34  H    4.050048   2.568626   2.155340   3.332829   3.350108
    35  H    4.515105   3.316996   2.093940   2.807987   2.765144
    36  H    6.665274   7.199116   6.841725   5.445234   5.717638
    37  H    7.691959   8.260581   7.698727   6.300902   6.632016
    38  H    6.819906   7.105129   6.396558   4.934821   5.028503
                   16         17         18         19         20
    16  C    0.000000
    17  C    1.512708   0.000000
    18  O    4.657567   5.344071   0.000000
    19  C    7.096280   7.570699   2.748170   0.000000
    20  H    3.420105   3.832859   2.538315   5.041635   0.000000
    21  H    5.422110   5.253875   3.724162   5.166123   2.433412
    22  H    3.169171   2.927421   3.378513   4.934622   3.066080
    23  H    8.812032   8.880114   5.006356   2.691947   6.744586
    24  H    9.082962   8.739725   6.147764   4.652467   7.096362
    25  H    7.622161   7.001652   5.726794   5.401422   5.760649
    26  H    5.074717   4.559499   5.351932   7.244970   3.126957
    27  H    5.090456   4.174143   5.644201   7.206004   3.814001
    28  H    2.921483   2.706269   4.832889   7.283340   2.394445
    29  H    3.680967   2.684576   6.097948   8.270089   3.838387
    30  H    2.161953   3.304602   2.697172   5.231245   2.426942
    31  H    2.146265   2.859764   3.603408   5.544565   3.646666
    32  H    1.096433   2.159424   4.788267   7.415710   3.185890
    33  H    1.093852   2.180338   5.343405   7.695305   4.415273
    34  H    2.181907   1.095274   6.266618   8.575816   4.468901
    35  H    2.149387   1.096972   5.786241   7.763683   4.644785
    36  H    7.157146   7.745183   2.530037   1.094465   4.775929
    37  H    8.138291   8.596272   3.827525   1.095786   6.129492
    38  H    6.540910   7.117832   2.543780   1.094485   4.981250
                   21         22         23         24         25
    21  H    0.000000
    22  H    3.902622   0.000000
    23  H    5.976086   5.984505   0.000000
    24  H    5.701889   5.991130   2.461783   0.000000
    25  H    4.098856   4.680744   4.282447   2.479038   0.000000
    26  H    2.252842   4.522229   8.066369   7.462708   5.374256
    27  H    2.795544   3.841144   7.614738   6.644721   4.325041
    28  H    3.517228   3.760481   8.675323   8.515169   6.628998
    29  H    4.210241   4.097961   9.237203   8.631301   6.450826
    30  H    4.691635   2.891199   7.308940   8.057073   7.054661
    31  H    5.469322   2.236204   7.247617   7.812292   6.836466
    32  H    5.303218   3.874803   9.257888   9.565984   8.043449
    33  H    6.488722   3.912041   9.485309   9.864863   8.511734
    34  H    5.776952   3.948994   9.858126   9.592157   7.696021
    35  H    5.941270   2.970050   8.917167   8.724975   7.076491
    36  H    4.960027   5.331477   3.456753   5.331007   5.900025
    37  H    6.101006   5.888562   2.303224   4.630755   5.856409
    38  H    5.550575   4.567467   3.415365   5.290922   5.884090
                   26         27         28         29         30
    26  H    0.000000
    27  H    1.759536   0.000000
    28  H    2.366634   3.047883   0.000000
    29  H    2.525446   2.366451   1.759607   0.000000
    30  H    5.221837   5.477755   3.565875   4.853567   0.000000
    31  H    5.920782   5.642819   4.315535   5.053733   1.769384
    32  H    4.775039   5.153340   2.460771   3.563868   2.356520
    33  H    6.153588   6.117151   3.950865   4.595724   2.708941
    34  H    4.657349   4.369276   2.765009   2.389082   4.164988
    35  H    5.398819   4.716765   3.753990   3.484296   3.817868
    36  H    7.065257   7.291024   7.128473   8.282217   5.175792
    37  H    8.232969   8.136606   8.365142   9.308332   6.273928
    38  H    7.455349   7.359341   7.155197   8.161339   4.663607
                   31         32         33         34         35
    31  H    0.000000
    32  H    3.017800   0.000000
    33  H    2.359667   1.773761   0.000000
    34  H    3.896820   2.442062   2.670924   0.000000
    35  H    2.831966   3.050960   2.418059   1.763725   0.000000
    36  H    5.828683   7.317086   7.796493   8.694867   8.078866
    37  H    6.491767   8.489029   8.696906   9.616066   8.729534
    38  H    4.815816   6.945017   7.018960   8.161647   7.231044
                   36         37         38
    36  H    0.000000
    37  H    1.758500   0.000000
    38  H    1.796871   1.760791   0.000000
 Stoichiometry    C16H19NO2
 Framework group  C1[X(C16H19NO2)]
 Deg. of freedom   108
 Full point group                 C1      NOp   1
 Largest Abelian subgroup         C1      NOp   1
 Largest concise Abelian subgroup C1      NOp   1
                         Standard orientation:                         
 ---------------------------------------------------------------------
 Center     Atomic      Atomic             Coordinates (Angstroms)
 Number     Number       Type             X           Y           Z
 ---------------------------------------------------------------------
      1          6           0       -3.016097    0.826499   -0.021293
      2          6           0       -4.057165    0.058480   -0.575459
      3          6           0       -3.857145   -1.274501   -0.930882
      4          6           0       -2.615146   -1.864878   -0.727581
      5          6           0       -1.576079   -1.126942   -0.160728
      6          6           0       -1.758283    0.220430    0.176330
      7          6           0       -0.581676    0.955371    0.695171
      8          8           0       -0.398726   -1.807285   -0.005137
      9          6           0        0.442747   -1.264072    1.021708
     10          6           0        0.728952    0.210155    0.783246
     11          6           0        1.738199   -2.089951    1.039039
     12          6           0        2.962578   -1.298102    0.571238
     13          7           0        2.665331   -0.560283   -0.656319
     14          6           0        1.562475    0.421353   -0.491202
     15          6           0        2.214763    1.813374   -0.543850
     16          6           0        3.708790    1.554868   -0.526530
     17          6           0        3.827409    0.184037   -1.155048
     18          8           0       -0.646357    2.139934    1.017274
     19          6           0       -3.301220    2.264323    0.318229
     20          1           0        1.262535    0.596542    1.663120
     21          1           0       -0.074455   -1.411733    1.980583
     22          1           0        0.911497    0.327754   -1.370915
     23          1           0       -5.037448    0.502135   -0.743274
     24          1           0       -4.669498   -1.850804   -1.366705
     25          1           0       -2.454725   -2.903867   -1.004122
     26          1           0        1.932707   -2.431409    2.063427
     27          1           0        1.626811   -2.992085    0.423904
     28          1           0        3.299816   -0.627476    1.372201
     29          1           0        3.779039   -2.008698    0.393023
     30          1           0        1.925600    2.475557    0.277589
     31          1           0        1.942122    2.309083   -1.483869
     32          1           0        4.076726    1.540910    0.506230
     33          1           0        4.266391    2.318291   -1.076783
     34          1           0        4.786286   -0.297751   -0.935822
     35          1           0        3.748990    0.265997   -2.246140
     36          1           0       -3.130608    2.448991    1.383425
     37          1           0       -4.346024    2.524622    0.114818
     38          1           0       -2.681032    2.932081   -0.287876
 ---------------------------------------------------------------------
 Rotational constants (GHZ):           0.7547793           0.2801007           0.2311529
 Standard basis: STO-3G (5D, 7F)
 There are   114 symmetry adapted cartesian basis functions of A   symmetry.
 There are   114 symmetry adapted basis functions of A   symmetry.
   114 basis functions,   342 primitive gaussians,   114 cartesian basis functions
    69 alpha electrons       69 beta electrons
       nuclear repulsion energy      1499.7966222742 Hartrees.
 NAtoms=   38 NActive=   38 NUniq=   38 SFac= 1.00D+00 NAtFMM=   60 NAOKFM=F Big=F
 Integral buffers will be    131072 words long.
 Raffenetti 1 integral format.
 Two-electron integral symmetry is turned on.
 One-electron integrals computed using PRISM.
 NBasis=   114 RedAO= T EigKep=  1.74D-01  NBF=   114
 NBsUse=   114 1.00D-06 EigRej= -1.00D+00 NBFU=   114
 ExpMin= 1.69D-01 ExpMax= 1.31D+02 ExpMxC= 1.31D+02 IAcc=3 IRadAn=         5 AccDes= 0.00D+00
 Harris functional with IExCor=  205 and IRadAn=       5 diagonalized for initial guess.
 HarFok:  IExCor=  205 AccDes= 0.00D+00 IRadAn=         5 IDoV= 1 UseB2=F ITyADJ=14
 ICtDFT=  3500011 ScaDFX=  1.000000  1.000000  1.000000  1.000000
 FoFCou: FMM=F IPFlag=           0 FMFlag=      100000 FMFlg1=           0
         NFxFlg=           0 DoJE=T BraDBF=F KetDBF=T FulRan=T
         wScrn=  0.000000 ICntrl=       500 IOpCl=  0 I1Cent=   200000004 NGrid=           0
         NMat0=    1 NMatS0=      1 NMatT0=    0 NMatD0=    1 NMtDS0=    0 NMtDT0=    0
 Petite list used in FoFCou.
 Requested convergence on RMS density matrix=1.00D-08 within 128 cycles.
 Requested convergence on MAX density matrix=1.00D-06.
 Requested convergence on             energy=1.00D-06.
 No special actions if energy rises.
 Integral accuracy reduced to 1.0D-05 until final iterations.
 Initial convergence to 1.0D-05 achieved.  Increase integral accuracy.
 SCF Done:  E(RHF) =  -811.053023061     A.U. after   17 cycles
            NFock= 17  Conv=0.79D-08     -V/T= 2.0093
 Range of M.O.s used for correlation:     1   114
 NBasis=   114 NAE=    69 NBE=    69 NFC=     0 NFV=     0
 NROrb=    114 NOA=    69 NOB=    69 NVA=    45 NVB=    45
          Differentiating once with respect to magnetic field using GIAOs.
          Electric field/nuclear overlap derivatives assumed to be zero.
 FoFCou: FMM=F IPFlag=           0 FMFlag=      100000 FMFlg1=           0
         NFxFlg=           0 DoJE=F BraDBF=F KetDBF=T FulRan=T
         wScrn=  0.000000 ICntrl=      6100 IOpCl=  0 I1Cent=           7 NGrid=          38
         NMat0=    1 NMatS0=      1 NMatT0=    0 NMatD0=    1 NMtDS0=    0 NMtDT0=    0
 Symmetry not used in FoFCou.
 FoFJK:  IHMeth= 1 ICntrl=    6127 DoSepK=F KAlg= 0 I1Cent=           0 FoldK=F
 IRaf=         1 NMat=       1 IRICut=       1 DoRegI=T DoRafI=F ISym2E= 0 IDoP0=0 IntGTp=1.
          There are     3 degrees of freedom in the 1st order CPHF.  IDoFFX=0 NUNeed=     3.
      3 vectors produced by pass  0 Test12= 1.04D-13 3.33D-08 XBig12= 2.44D+01 1.44D+00.
 AX will form     3 AO Fock derivatives at one time.
      3 vectors produced by pass  1 Test12= 1.04D-13 3.33D-08 XBig12= 1.53D-01 2.16D-01.
      3 vectors produced by pass  2 Test12= 1.04D-13 3.33D-08 XBig12= 3.87D-03 2.43D-02.
      3 vectors produced by pass  3 Test12= 1.04D-13 3.33D-08 XBig12= 1.24D-04 2.84D-03.
      3 vectors produced by pass  4 Test12= 1.04D-13 3.33D-08 XBig12= 1.56D-06 1.63D-04.
      3 vectors produced by pass  5 Test12= 1.04D-13 3.33D-08 XBig12= 1.83D-08 2.02D-05.
      3 vectors produced by pass  6 Test12= 1.04D-13 3.33D-08 XBig12= 3.50D-10 2.95D-06.
      3 vectors produced by pass  7 Test12= 1.04D-13 3.33D-08 XBig12= 5.45D-12 3.12D-07.
      1 vectors produced by pass  8 Test12= 1.04D-13 3.33D-08 XBig12= 8.99D-14 4.46D-08.
 InvSVY:  IOpt=1 It=  1 EMax= 8.88D-16
 Solved reduced A of dimension    25 with     3 vectors.
 Calculating GIAO nuclear magnetic shielding tensors.
 SCF GIAO Magnetic shielding tensor (ppm):
      1  C    Isotropic =   113.7338   Anisotropy =   169.7538
   XX=    87.8236   YX=    25.4644   ZX=   -35.0118
   XY=    30.1438   YY=    49.3548   ZY=   -43.9531
   XZ=   -33.3652   YZ=   -42.1709   ZZ=   204.0231
   Eigenvalues:    31.1710    83.1275   226.9031
      2  C    Isotropic =   123.9119   Anisotropy =   142.6602
   XX=    60.4510   YX=    41.0237   ZX=   -36.6151
   XY=    37.5264   YY=   110.1113   ZY=   -22.0242
   XZ=   -39.5462   YZ=   -17.8608   ZZ=   201.1734
   Eigenvalues:    35.1281   117.5888   219.0187
      3  C    Isotropic =   117.1722   Anisotropy =   168.5724
   XX=    68.3388   YX=   -21.9135   ZX=   -56.8792
   XY=   -23.1967   YY=    88.2173   ZY=   -51.7795
   XZ=   -59.1367   YZ=   -51.5379   ZZ=   194.9605
   Eigenvalues:    19.6643   102.2985   229.5539
      4  C    Isotropic =   131.3558   Anisotropy =   145.5684
   XX=   126.0898   YX=    17.0585   ZX=   -27.9691
   XY=    15.9157   YY=    62.8668   ZY=   -47.6647
   XZ=   -30.2612   YZ=   -41.8259   ZZ=   205.1106
   Eigenvalues:    49.1076   116.5583   228.4013
      5  C    Isotropic =   104.6380   Anisotropy =   133.4549
   XX=    64.9651   YX=    25.7798   ZX=   -35.8386
   XY=    15.1669   YY=    74.6142   ZY=   -30.7041
   XZ=   -33.9577   YZ=   -25.5649   ZZ=   174.3347
   Eigenvalues:    47.5694    72.7366   193.6079
      6  C    Isotropic =   131.5291   Anisotropy =   150.3882
   XX=    89.4165   YX=    -5.8150   ZX=   -43.3085
   XY=    -8.1184   YY=    97.6898   ZY=   -40.5174
   XZ=   -37.5686   YZ=   -46.2624   ZZ=   207.4811
   Eigenvalues:    62.1316   100.6679   231.7880
      7  C    Isotropic =    90.2111   Anisotropy =   140.7390
   XX=   -32.2602   YX=     4.0701   ZX=   -53.6379
   XY=     4.4688   YY=   138.1046   ZY=   -12.6765
   XZ=   -57.2408   YZ=   -15.5324   ZZ=   164.7890
   Eigenvalues:   -46.7886   133.3849   184.0371
      8  O    Isotropic =   337.3824   Anisotropy =    88.3174
   XX=   320.1213   YX=   -37.0825   ZX=   -55.4868
   XY=   -46.2755   YY=   322.8777   ZY=   -42.6719
   XZ=   -35.0773   YZ=    -0.8356   ZZ=   369.1483
   Eigenvalues:   258.7544   357.1321   396.2607
      9  C    Isotropic =   187.4450   Anisotropy =    45.5065
   XX=   193.4384   YX=     5.0130   ZX=    22.0857
   XY=     9.2321   YY=   178.1566   ZY=    10.9729
   XZ=    21.6488   YZ=     9.5675   ZZ=   190.7401
   Eigenvalues:   169.0155   175.5368   217.7827
     10  C    Isotropic =   209.9589   Anisotropy =    11.5262
   XX=   212.1701   YX=     1.7562   ZX=    -4.5162
   XY=    -1.1308   YY=   204.4043   ZY=    -4.8371
   XZ=    -4.2644   YZ=    -1.2417   ZZ=   213.3022
   Eigenvalues:   203.3263   208.9073   217.6430
     11  C    Isotropic =   216.4839   Anisotropy =    18.0213
   XX=   227.3122   YX=    -4.0015   ZX=    -0.4054
   XY=    -2.7731   YY=   218.3712   ZY=    -1.2874
   XZ=     0.9523   YZ=    -3.8245   ZZ=   203.7683
   Eigenvalues:   203.3300   217.6236   228.4981
     12  C    Isotropic =   203.4061   Anisotropy =    34.7147
   XX=   197.3808   YX=     0.5515   ZX=     3.3606
   XY=    -1.6649   YY=   202.2641   ZY=   -19.5211
   XZ=    -1.3471   YZ=   -19.7831   ZZ=   210.5735
   Eigenvalues:   186.3287   197.3405   226.5492
     13  N    Isotropic =   291.3820   Anisotropy =    67.3511
   XX=   328.2165   YX=    -9.4197   ZX=   -22.7561
   XY=   -10.2451   YY=   294.0577   ZY=   -13.3572
   XZ=   -26.1499   YZ=   -10.9924   ZZ=   251.8719
   Eigenvalues:   240.7662   297.0971   336.2827
     14  C    Isotropic =   195.4316   Anisotropy =    40.8013
   XX=   210.7003   YX=   -12.2510   ZX=   -10.8065
   XY=   -11.6822   YY=   207.7848   ZY=     1.8791
   XZ=    -8.4116   YZ=     2.0010   ZZ=   167.8096
   Eigenvalues:   165.7459   197.9164   222.6324
     15  C    Isotropic =   211.5093   Anisotropy =    31.6454
   XX=   222.3918   YX=     7.0051   ZX=   -10.0594
   XY=     8.4934   YY=   225.4413   ZY=     0.9026
   XZ=    -6.0382   YZ=    -2.9562   ZZ=   186.6948
   Eigenvalues:   184.9539   216.9678   232.6063
     16  C    Isotropic =   216.7546   Anisotropy =    21.7329
   XX=   229.4581   YX=    -0.2677   ZX=    -7.6459
   XY=    -2.8108   YY=   223.9354   ZY=     5.2463
   XZ=    -0.7096   YZ=    11.8050   ZZ=   196.8702
   Eigenvalues:   194.0430   224.9775   231.2432
     17  C    Isotropic =   197.7398   Anisotropy =    48.6133
   XX=   211.6803   YX=    13.6610   ZX=   -17.1186
   XY=    15.8202   YY=   204.8670   ZY=    -7.6928
   XZ=   -25.0897   YZ=     1.5395   ZZ=   176.6722
   Eigenvalues:   166.4068   196.6640   230.1487
     18  O    Isotropic =  -357.2583   Anisotropy =  1274.8868
   XX=  -343.6507   YX=    71.4290   ZX=  -185.6781
   XY=    86.0417   YY= -1030.9780   ZY=  -414.4151
   XZ=  -194.3868   YZ=  -492.8377   ZZ=   302.8539
   Eigenvalues: -1171.0977  -393.3433   492.6663
     19  C    Isotropic =   218.0508   Anisotropy =    23.4422
   XX=   215.3172   YX=    -3.5211   ZX=     1.5166
   XY=    -3.9318   YY=   231.3123   ZY=     6.8381
   XZ=     1.0139   YZ=     6.6338   ZZ=   207.5228
   Eigenvalues:   205.2597   215.2137   233.6789
     20  H    Isotropic =    31.0278   Anisotropy =     9.5768
   XX=    28.9110   YX=     1.5801   ZX=     0.8897
   XY=     1.2683   YY=    30.0652   ZY=     3.7329
   XZ=     3.0340   YZ=     4.6156   ZZ=    34.1072
   Eigenvalues:    27.4171    28.2540    37.4124
     21  H    Isotropic =    31.1829   Anisotropy =    10.8342
   XX=    30.3805   YX=     0.7798   ZX=    -3.9945
   XY=    -0.3464   YY=    26.9673   ZY=    -1.9732
   XZ=    -1.8547   YZ=    -5.0858   ZZ=    36.2010
   Eigenvalues:    25.6404    29.5027    38.4057
     22  H    Isotropic =    31.6858   Anisotropy =     9.7096
   XX=    35.0648   YX=     1.5140   ZX=     5.8249
   XY=     2.8338   YY=    26.4640   ZY=    -2.6379
   XZ=     1.6569   YZ=    -0.5295   ZZ=    33.5286
   Eigenvalues:    25.1563    31.7422    38.1589
     23  H    Isotropic =    25.8899   Anisotropy =     5.9566
   XX=    27.3884   YX=     0.8213   ZX=     2.0911
   XY=     0.8554   YY=    27.9633   ZY=     2.3790
   XZ=     1.8883   YZ=     2.4645   ZZ=    22.3182
   Eigenvalues:    21.0147    26.7940    29.8610
     24  H    Isotropic =    25.2595   Anisotropy =     3.7072
   XX=    26.9886   YX=    -0.6937   ZX=     1.4786
   XY=    -1.0780   YY=    26.6345   ZY=     1.2586
   XZ=     1.3109   YZ=     1.3876   ZZ=    22.1553
   Eigenvalues:    21.3484    26.6991    27.7310
     25  H    Isotropic =    25.6350   Anisotropy =     7.3908
   XX=    28.6284   YX=     1.1912   ZX=     3.0259
   XY=     0.8514   YY=    26.6762   ZY=     2.2354
   XZ=     2.7235   YZ=     2.6505   ZZ=    21.6003
   Eigenvalues:    19.9732    26.3695    30.5622
     26  H    Isotropic =    31.7979   Anisotropy =    15.1815
   XX=    29.0536   YX=    -1.7978   ZX=     2.0316
   XY=    -1.4040   YY=    29.8830   ZY=    -6.8216
   XZ=     2.3155   YZ=    -8.1683   ZZ=    36.4572
   Eigenvalues:    24.9797    28.4952    41.9189
     27  H    Isotropic =    30.9099   Anisotropy =    13.5764
   XX=    28.8110   YX=     0.2322   ZX=     0.4879
   XY=     0.3092   YY=    38.8511   ZY=     4.1861
   XZ=     0.3918   YZ=     3.8948   ZZ=    25.0678
   Eigenvalues:    23.9450    28.8240    39.9609
     28  H    Isotropic =    32.3251   Anisotropy =     8.9626
   XX=    31.8703   YX=     2.3254   ZX=     4.1802
   XY=     2.4101   YY=    30.4661   ZY=     0.1802
   XZ=     4.7271   YZ=     0.5465   ZZ=    34.6388
   Eigenvalues:    27.5195    31.1556    38.3001
     29  H    Isotropic =    31.5926   Anisotropy =    14.0506
   XX=    35.8132   YX=    -6.2625   ZX=    -1.5693
   XY=    -6.1559   YY=    33.4593   ZY=    -1.6949
   XZ=    -1.2197   YZ=    -2.4073   ZZ=    25.5054
   Eigenvalues:    24.0673    29.7509    40.9597
     30  H    Isotropic =    31.9481   Anisotropy =    12.6944
   XX=    30.5378   YX=    -2.2908   ZX=    -2.9245
   XY=    -0.9026   YY=    36.5626   ZY=     5.9114
   XZ=    -5.0049   YZ=     4.8349   ZZ=    28.7440
   Eigenvalues:    24.5233    30.9099    40.4111
     31  H    Isotropic =    32.2134   Anisotropy =    13.9962
   XX=    30.0826   YX=    -1.5925   ZX=     2.4883
   XY=    -0.9015   YY=    33.6833   ZY=    -7.7185
   XZ=     1.5066   YZ=    -7.8829   ZZ=    32.8742
   Eigenvalues:    25.3878    29.7081    41.5442
     32  H    Isotropic =    32.1569   Anisotropy =    11.5825
   XX=    32.2174   YX=     2.2921   ZX=     5.1481
   XY=     2.4841   YY=    29.3931   ZY=     1.9455
   XZ=     5.3139   YZ=     2.3015   ZZ=    34.8601
   Eigenvalues:    27.7199    28.8721    39.8786
     33  H    Isotropic =    32.3073   Anisotropy =    16.3242
   XX=    33.6990   YX=     6.5812   ZX=    -3.8694
   XY=     6.5875   YY=    35.3571   ZY=    -4.0008
   XZ=    -3.9992   YZ=    -3.9138   ZZ=    27.8658
   Eigenvalues:    25.7943    27.9376    43.1902
     34  H    Isotropic =    31.7954   Anisotropy =    14.0294
   XX=    39.2801   YX=    -4.7177   ZX=    -2.3319
   XY=    -3.3906   YY=    29.8620   ZY=    -0.5615
   XZ=    -2.9609   YZ=    -0.3862   ZZ=    26.2440
   Eigenvalues:    25.2902    28.9476    41.1483
     35  H    Isotropic =    31.4799   Anisotropy =    14.5055
   XX=    28.0655   YX=     0.2475   ZX=    -4.7778
   XY=     0.7238   YY=    26.9205   ZY=    -0.7563
   XZ=    -4.6414   YZ=     0.8250   ZZ=    39.4537
   Eigenvalues:    26.1017    27.1878    41.1502
     36  H    Isotropic =    30.9301   Anisotropy =    10.8342
   XX=    28.8135   YX=    -1.5886   ZX=     1.9308
   XY=    -0.6771   YY=    29.3450   ZY=     4.0198
   XZ=     0.6718   YZ=     7.0585   ZZ=    34.6316
   Eigenvalues:    25.1098    29.5275    38.1529
     37  H    Isotropic =    30.9768   Anisotropy =    12.2605
   XX=    37.3084   YX=    -3.2756   ZX=     2.6354
   XY=    -3.9683   YY=    30.7832   ZY=     1.0498
   XZ=     2.3451   YZ=     1.3589   ZZ=    24.8388
   Eigenvalues:    23.7973    29.9827    39.1505
     38  H    Isotropic =    31.0236   Anisotropy =    10.5645
   XX=    31.2543   YX=     3.5313   ZX=    -2.0139
   XY=     1.9014   YY=    35.3637   ZY=    -2.2343
   XZ=    -0.7828   YZ=    -5.2170   ZZ=    26.4527
   Eigenvalues:    25.0724    29.9318    38.0666
 End of Minotr F.D. properties file   721 does not exist.
 End of Minotr F.D. properties file   722 does not exist.
 End of Minotr F.D. properties file   788 does not exist.

 **********************************************************************

            Population analysis using the SCF Density.

 **********************************************************************

 Orbital symmetries:
       Occupied  (A) (A) (A) (A) (A) (A) (A) (A) (A) (A) (A) (A)
                 (A) (A) (A) (A) (A) (A) (A) (A) (A) (A) (A) (A)
                 (A) (A) (A) (A) (A) (A) (A) (A) (A) (A) (A) (A)
                 (A) (A) (A) (A) (A) (A) (A) (A) (A) (A) (A) (A)
                 (A) (A) (A) (A) (A) (A) (A) (A) (A) (A) (A) (A)
                 (A) (A) (A) (A) (A) (A) (A) (A) (A)
       Virtual   (A) (A) (A) (A) (A) (A) (A) (A) (A) (A) (A) (A)
                 (A) (A) (A) (A) (A) (A) (A) (A) (A) (A) (A) (A)
                 (A) (A) (A) (A) (A) (A) (A) (A) (A) (A) (A) (A)
                 (A) (A) (A) (A) (A) (A) (A) (A) (A)
 The electronic state is 1-A.
 Alpha  occ. eigenvalues --  -20.29680 -20.26299 -15.31004 -11.11596 -11.11168
 Alpha  occ. eigenvalues --  -11.09639 -11.07922 -11.07527 -11.06828 -11.06574
 Alpha  occ. eigenvalues --  -11.05171 -11.05135 -11.04293 -11.04138 -11.03897
 Alpha  occ. eigenvalues --  -11.03891 -11.02817 -11.02085 -11.01795  -1.34250
 Alpha  occ. eigenvalues --   -1.31553  -1.19542  -1.09709  -1.05074  -1.02774
 Alpha  occ. eigenvalues --   -0.99032  -0.97811  -0.95058  -0.91916  -0.88215
 Alpha  occ. eigenvalues --   -0.84442  -0.79859  -0.78321  -0.75460  -0.74216
 Alpha  occ. eigenvalues --   -0.71492  -0.68097  -0.65941  -0.64171  -0.62707
 Alpha  occ. eigenvalues --   -0.61038  -0.60756  -0.57596  -0.57135  -0.55542
 Alpha  occ. eigenvalues --   -0.54750  -0.54395  -0.53540  -0.52827  -0.51850
 Alpha  occ. eigenvalues --   -0.51085  -0.49561  -0.49297  -0.47693  -0.47228
 Alpha  occ. eigenvalues --   -0.45738  -0.45202  -0.44326  -0.44137  -0.43589
 Alpha  occ. eigenvalues --   -0.42841  -0.42097  -0.39532  -0.38954  -0.36597
 Alpha  occ. eigenvalues --   -0.31491  -0.27833  -0.27210  -0.24368
 Alpha virt. eigenvalues --    0.21177   0.26998   0.34511   0.49163   0.50856
 Alpha virt. eigenvalues --    0.53349   0.55309   0.56236   0.58735   0.59303
 Alpha virt. eigenvalues --    0.60627   0.60917   0.62121   0.63474   0.65100
 Alpha virt. eigenvalues --    0.65260   0.66186   0.67153   0.68637   0.69070
 Alpha virt. eigenvalues --    0.69847   0.71610   0.72874   0.73359   0.73700
 Alpha virt. eigenvalues --    0.73969   0.75015   0.75482   0.76424   0.77618
 Alpha virt. eigenvalues --    0.78383   0.78589   0.79955   0.80208   0.81525
 Alpha virt. eigenvalues --    0.82927   0.84712   0.86072   0.86998   0.87171
 Alpha virt. eigenvalues --    0.90798   0.93712   1.00606   1.12018   1.13693
          Condensed to atoms (all electrons):
               1          2          3          4          5          6
     1  C    4.757804   0.505789  -0.028718  -0.010048  -0.027953   0.496719
     2  C    0.505789   4.807844   0.503892  -0.031541  -0.011330  -0.031187
     3  C   -0.028718   0.503892   4.758537   0.509254  -0.029234  -0.009517
     4  C   -0.010048  -0.031541   0.509254   4.806673   0.498883  -0.032072
     5  C   -0.027953  -0.011330  -0.029234   0.498883   4.752002   0.489515
     6  C    0.496719  -0.031187  -0.009517  -0.032072   0.489515   4.872158
     7  C   -0.023419   0.000766   0.000018   0.000807  -0.029968   0.390671
     8  O    0.000246   0.000008   0.000351  -0.027161   0.294044  -0.016912
     9  C    0.000030   0.000000  -0.000020   0.001679  -0.039920  -0.007476
    10  C    0.000618  -0.000007  -0.000000  -0.000035  -0.004506  -0.034370
    11  C    0.000000   0.000000   0.000000  -0.000014   0.001610  -0.000005
    12  C   -0.000000  -0.000000  -0.000000   0.000000  -0.000016  -0.000001
    13  N    0.000000  -0.000000  -0.000000  -0.000000   0.000002  -0.000004
    14  C   -0.000006   0.000000   0.000000  -0.000002  -0.000029  -0.000048
    15  C    0.000000  -0.000000  -0.000000   0.000000  -0.000001   0.000005
    16  C   -0.000000   0.000000   0.000000  -0.000000  -0.000000  -0.000000
    17  C   -0.000000   0.000000   0.000000   0.000000  -0.000000   0.000000
    18  O   -0.001027  -0.000004  -0.000000  -0.000002   0.000325  -0.027038
    19  C    0.381549  -0.030231   0.000880   0.000011   0.000715  -0.024039
    20  H   -0.000015   0.000000  -0.000000   0.000001   0.000029   0.001087
    21  H   -0.000010  -0.000001   0.000000   0.000092  -0.002974   0.000639
    22  H   -0.000013   0.000000  -0.000000   0.000002  -0.000027   0.000259
    23  H   -0.025038   0.394225  -0.026858   0.001423   0.000049   0.001257
    24  H    0.001321  -0.024798   0.393601  -0.025131   0.001372   0.000009
    25  H    0.000036   0.001382  -0.024605   0.393509  -0.025340   0.001238
    26  H   -0.000000  -0.000000  -0.000000   0.000001  -0.000040  -0.000000
    27  H   -0.000000   0.000000   0.000000  -0.000007   0.000109   0.000001
    28  H    0.000000  -0.000000   0.000000  -0.000000   0.000000  -0.000000
    29  H   -0.000000   0.000000   0.000000  -0.000000   0.000000   0.000000
    30  H    0.000000   0.000000   0.000000   0.000000  -0.000000   0.000005
    31  H   -0.000000   0.000000   0.000000   0.000000   0.000000   0.000001
    32  H    0.000000  -0.000000   0.000000   0.000000   0.000000  -0.000000
    33  H   -0.000000  -0.000000  -0.000000   0.000000  -0.000000   0.000000
    34  H    0.000000  -0.000000  -0.000000  -0.000000   0.000000  -0.000000
    35  H    0.000000  -0.000000  -0.000000  -0.000000  -0.000000  -0.000000
    36  H   -0.021133   0.000776  -0.000023   0.000002   0.000002  -0.001952
    37  H   -0.020510  -0.005653   0.000061  -0.000000  -0.000016   0.001131
    38  H   -0.021136   0.000659  -0.000024   0.000003  -0.000001  -0.001727
               7          8          9         10         11         12
     1  C   -0.023419   0.000246   0.000030   0.000618   0.000000  -0.000000
     2  C    0.000766   0.000008   0.000000  -0.000007   0.000000  -0.000000
     3  C    0.000018   0.000351  -0.000020  -0.000000   0.000000  -0.000000
     4  C    0.000807  -0.027161   0.001679  -0.000035  -0.000014   0.000000
     5  C   -0.029968   0.294044  -0.039920  -0.004506   0.001610  -0.000016
     6  C    0.390671  -0.016912  -0.007476  -0.034370  -0.000005  -0.000001
     7  C    4.767377  -0.002030  -0.024061   0.359297   0.000740   0.000047
     8  O   -0.002030   7.793747   0.261850  -0.016592  -0.019751   0.000232
     9  C   -0.024061   0.261850   4.739708   0.356565   0.358220  -0.021002
    10  C    0.359297  -0.016592   0.356565   4.824363  -0.023898  -0.010367
    11  C    0.000740  -0.019751   0.358220  -0.023898   4.757960   0.361757
    12  C    0.000047   0.000232  -0.021002  -0.010367   0.361757   4.704530
    13  N    0.000367   0.000022  -0.003142  -0.015953  -0.021291   0.328214
    14  C   -0.021466  -0.000493  -0.021620   0.358230  -0.004206  -0.031689
    15  C   -0.000807  -0.000001   0.000706  -0.021892  -0.000006   0.000772
    16  C    0.000006  -0.000000  -0.000013   0.000637  -0.000015  -0.000323
    17  C   -0.000008  -0.000000   0.000017   0.000981   0.001077  -0.034680
    18  O    0.431493  -0.000000   0.000324  -0.026990  -0.000001  -0.000000
    19  C   -0.002568  -0.000001  -0.000000   0.000007  -0.000000   0.000000
    20  H   -0.023308   0.000565  -0.022020   0.380411  -0.001321  -0.000665
    21  H   -0.001726  -0.019319   0.377889  -0.025467  -0.024442   0.001128
    22  H   -0.003609   0.000081  -0.000854  -0.025135   0.000085   0.001674
    23  H   -0.000014   0.000000  -0.000000   0.000000   0.000000  -0.000000
    24  H    0.000001  -0.000005   0.000000  -0.000000  -0.000000   0.000000
    25  H   -0.000019  -0.001092   0.000033   0.000000  -0.000003   0.000000
    26  H   -0.000013   0.000615  -0.021445   0.000891   0.381881  -0.022715
    27  H   -0.000020  -0.002089  -0.020754   0.001022   0.381648  -0.020983
    28  H    0.000002  -0.000005  -0.000714  -0.000476  -0.025127   0.377561
    29  H    0.000000  -0.000007   0.001169   0.000089  -0.020972   0.383719
    30  H   -0.000242  -0.000000   0.000049  -0.005037   0.000001  -0.000037
    31  H    0.000013   0.000000  -0.000015   0.001142  -0.000001  -0.000020
    32  H    0.000001   0.000000  -0.000000   0.000004  -0.000002  -0.000329
    33  H   -0.000000   0.000000   0.000000  -0.000011   0.000000  -0.000006
    34  H    0.000000   0.000000  -0.000001  -0.000025   0.000044  -0.005057
    35  H    0.000000   0.000000  -0.000001  -0.000017  -0.000022   0.001815
    36  H   -0.000060  -0.000000  -0.000000  -0.000003  -0.000000   0.000000
    37  H    0.000014   0.000000   0.000000   0.000000   0.000000  -0.000000
    38  H   -0.000069  -0.000000  -0.000000  -0.000002   0.000000   0.000000
              13         14         15         16         17         18
     1  C    0.000000  -0.000006   0.000000  -0.000000  -0.000000  -0.001027
     2  C   -0.000000   0.000000  -0.000000   0.000000   0.000000  -0.000004
     3  C   -0.000000   0.000000  -0.000000   0.000000   0.000000  -0.000000
     4  C   -0.000000  -0.000002   0.000000  -0.000000   0.000000  -0.000002
     5  C    0.000002  -0.000029  -0.000001  -0.000000  -0.000000   0.000325
     6  C   -0.000004  -0.000048   0.000005  -0.000000   0.000000  -0.027038
     7  C    0.000367  -0.021466  -0.000807   0.000006  -0.000008   0.431493
     8  O    0.000022  -0.000493  -0.000001  -0.000000  -0.000000  -0.000000
     9  C   -0.003142  -0.021620   0.000706  -0.000013   0.000017   0.000324
    10  C   -0.015953   0.358230  -0.021892   0.000637   0.000981  -0.026990
    11  C   -0.021291  -0.004206  -0.000006  -0.000015   0.001077  -0.000001
    12  C    0.328214  -0.031689   0.000772  -0.000323  -0.034680  -0.000000
    13  N    6.507451   0.326199  -0.028855  -0.034051   0.331411  -0.000000
    14  C    0.326199   4.742460   0.359245  -0.034020  -0.044573  -0.000364
    15  C   -0.028855   0.359245   4.781499   0.364896  -0.038430  -0.000218
    16  C   -0.034051  -0.034020   0.364896   4.767808   0.364113   0.000001
    17  C    0.331411  -0.044573  -0.038430   0.364113   4.717992  -0.000000
    18  O   -0.000000  -0.000364  -0.000218   0.000001  -0.000000   7.857767
    19  C    0.000000  -0.000000   0.000000   0.000000  -0.000000  -0.001630
    20  H   -0.000344  -0.020807  -0.003990   0.000136   0.000029  -0.001520
    21  H    0.000010   0.001208  -0.000015   0.000000   0.000001   0.000002
    22  H   -0.027342   0.383394  -0.026582   0.001093   0.001277   0.000021
    23  H    0.000000  -0.000000  -0.000000   0.000000  -0.000000   0.000000
    24  H   -0.000000  -0.000000   0.000000  -0.000000   0.000000  -0.000000
    25  H   -0.000000  -0.000000   0.000000  -0.000000  -0.000000   0.000000
    26  H    0.000920   0.000011   0.000001   0.000001  -0.000026   0.000000
    27  H   -0.000370   0.000033   0.000001  -0.000000   0.000002   0.000000
    28  H   -0.022436  -0.002321   0.000426   0.000197  -0.002338   0.000000
    29  H   -0.020045   0.001625  -0.000036  -0.000023  -0.002936  -0.000000
    30  H    0.000782  -0.018386   0.383911  -0.020715   0.001620   0.000318
    31  H    0.000793  -0.021789   0.383780  -0.022651  -0.000080  -0.000012
    32  H   -0.000347   0.000247  -0.022584   0.383356  -0.022221   0.000000
    33  H    0.001106   0.001467  -0.019412   0.383937  -0.019152   0.000000
    34  H   -0.015249   0.001699   0.001585  -0.020436   0.382961   0.000000
    35  H   -0.024810   0.000312  -0.001498  -0.025355   0.381818   0.000000
    36  H   -0.000000  -0.000000   0.000000  -0.000000  -0.000000  -0.000384
    37  H    0.000000   0.000000   0.000000  -0.000000  -0.000000   0.000063
    38  H   -0.000000   0.000000  -0.000000   0.000000   0.000000  -0.000292
              19         20         21         22         23         24
     1  C    0.381549  -0.000015  -0.000010  -0.000013  -0.025038   0.001321
     2  C   -0.030231   0.000000  -0.000001   0.000000   0.394225  -0.024798
     3  C    0.000880  -0.000000   0.000000  -0.000000  -0.026858   0.393601
     4  C    0.000011   0.000001   0.000092   0.000002   0.001423  -0.025131
     5  C    0.000715   0.000029  -0.002974  -0.000027   0.000049   0.001372
     6  C   -0.024039   0.001087   0.000639   0.000259   0.001257   0.000009
     7  C   -0.002568  -0.023308  -0.001726  -0.003609  -0.000014   0.000001
     8  O   -0.000001   0.000565  -0.019319   0.000081   0.000000  -0.000005
     9  C   -0.000000  -0.022020   0.377889  -0.000854  -0.000000   0.000000
    10  C    0.000007   0.380411  -0.025467  -0.025135   0.000000  -0.000000
    11  C   -0.000000  -0.001321  -0.024442   0.000085   0.000000  -0.000000
    12  C    0.000000  -0.000665   0.001128   0.001674  -0.000000   0.000000
    13  N    0.000000  -0.000344   0.000010  -0.027342   0.000000  -0.000000
    14  C   -0.000000  -0.020807   0.001208   0.383394  -0.000000  -0.000000
    15  C    0.000000  -0.003990  -0.000015  -0.026582  -0.000000   0.000000
    16  C    0.000000   0.000136   0.000000   0.001093   0.000000  -0.000000
    17  C   -0.000000   0.000029   0.000001   0.001277  -0.000000   0.000000
    18  O   -0.001630  -0.001520   0.000002   0.000021   0.000000  -0.000000
    19  C    4.713067  -0.000001  -0.000000  -0.000000  -0.004257  -0.000016
    20  H   -0.000001   0.624304  -0.002433   0.001765  -0.000000   0.000000
    21  H   -0.000000  -0.002433   0.646055  -0.000010  -0.000000   0.000000
    22  H   -0.000000   0.001765  -0.000010   0.639491  -0.000000   0.000000
    23  H   -0.004257  -0.000000  -0.000000  -0.000000   0.605455  -0.003747
    24  H   -0.000016   0.000000   0.000000   0.000000  -0.003747   0.593897
    25  H    0.000000  -0.000000   0.000000   0.000000  -0.000032  -0.003710
    26  H    0.000000   0.000059  -0.006736   0.000001  -0.000000   0.000000
    27  H   -0.000000   0.000011   0.001051  -0.000007   0.000000  -0.000000
    28  H   -0.000000  -0.000819   0.000028  -0.000078   0.000000  -0.000000
    29  H   -0.000000   0.000011  -0.000027  -0.000032  -0.000000  -0.000000
    30  H    0.000000   0.000069  -0.000003   0.001349   0.000000   0.000000
    31  H    0.000000   0.000034   0.000000  -0.007081  -0.000000   0.000000
    32  H   -0.000000   0.000004  -0.000000  -0.000023   0.000000  -0.000000
    33  H   -0.000000  -0.000006  -0.000000  -0.000032  -0.000000   0.000000
    34  H    0.000000  -0.000000  -0.000000  -0.000031   0.000000  -0.000000
    35  H    0.000000  -0.000001  -0.000000   0.000286   0.000000   0.000000
    36  H    0.380770   0.000000   0.000000   0.000000   0.000070   0.000000
    37  H    0.382776  -0.000000  -0.000000  -0.000000   0.000166  -0.000003
    38  H    0.380512   0.000000  -0.000000   0.000000   0.000070   0.000000
              25         26         27         28         29         30
     1  C    0.000036  -0.000000  -0.000000   0.000000  -0.000000   0.000000
     2  C    0.001382  -0.000000   0.000000  -0.000000   0.000000   0.000000
     3  C   -0.024605  -0.000000   0.000000   0.000000   0.000000   0.000000
     4  C    0.393509   0.000001  -0.000007  -0.000000  -0.000000   0.000000
     5  C   -0.025340  -0.000040   0.000109   0.000000   0.000000  -0.000000
     6  C    0.001238  -0.000000   0.000001  -0.000000   0.000000   0.000005
     7  C   -0.000019  -0.000013  -0.000020   0.000002   0.000000  -0.000242
     8  O   -0.001092   0.000615  -0.002089  -0.000005  -0.000007  -0.000000
     9  C    0.000033  -0.021445  -0.020754  -0.000714   0.001169   0.000049
    10  C    0.000000   0.000891   0.001022  -0.000476   0.000089  -0.005037
    11  C   -0.000003   0.381881   0.381648  -0.025127  -0.020972   0.000001
    12  C    0.000000  -0.022715  -0.020983   0.377561   0.383719  -0.000037
    13  N   -0.000000   0.000920  -0.000370  -0.022436  -0.020045   0.000782
    14  C   -0.000000   0.000011   0.000033  -0.002321   0.001625  -0.018386
    15  C    0.000000   0.000001   0.000001   0.000426  -0.000036   0.383911
    16  C   -0.000000   0.000001  -0.000000   0.000197  -0.000023  -0.020715
    17  C   -0.000000  -0.000026   0.000002  -0.002338  -0.002936   0.001620
    18  O    0.000000   0.000000   0.000000   0.000000  -0.000000   0.000318
    19  C    0.000000   0.000000  -0.000000  -0.000000  -0.000000   0.000000
    20  H   -0.000000   0.000059   0.000011  -0.000819   0.000011   0.000069
    21  H    0.000000  -0.006736   0.001051   0.000028  -0.000027  -0.000003
    22  H    0.000000   0.000001  -0.000007  -0.000078  -0.000032   0.001349
    23  H   -0.000032  -0.000000   0.000000   0.000000  -0.000000   0.000000
    24  H   -0.003710   0.000000  -0.000000  -0.000000  -0.000000   0.000000
    25  H    0.588762   0.000000  -0.000001  -0.000000  -0.000000  -0.000000
    26  H    0.000000   0.636038  -0.021872  -0.003837  -0.000644  -0.000000
    27  H   -0.000001  -0.021872   0.607806   0.001877  -0.004482   0.000000
    28  H   -0.000000  -0.003837   0.001877   0.667285  -0.026643  -0.000026
    29  H   -0.000000  -0.000644  -0.004482  -0.026643   0.626403   0.000002
    30  H   -0.000000  -0.000000   0.000000  -0.000026   0.000002   0.620224
    31  H   -0.000000  -0.000000  -0.000000  -0.000005   0.000001  -0.023102
    32  H   -0.000000   0.000000  -0.000000  -0.000349   0.000039  -0.005224
    33  H    0.000000  -0.000000   0.000000  -0.000013  -0.000001   0.000481
    34  H   -0.000000  -0.000002  -0.000000   0.000048  -0.000270  -0.000041
    35  H    0.000000   0.000000  -0.000000  -0.000070   0.000105   0.000003
    36  H   -0.000000   0.000000   0.000000   0.000000  -0.000000   0.000000
    37  H    0.000000  -0.000000  -0.000000   0.000000   0.000000  -0.000000
    38  H   -0.000000   0.000000  -0.000000  -0.000000   0.000000   0.000000
              31         32         33         34         35         36
     1  C   -0.000000   0.000000  -0.000000   0.000000   0.000000  -0.021133
     2  C    0.000000  -0.000000  -0.000000  -0.000000  -0.000000   0.000776
     3  C    0.000000   0.000000  -0.000000  -0.000000  -0.000000  -0.000023
     4  C    0.000000   0.000000   0.000000  -0.000000  -0.000000   0.000002
     5  C    0.000000   0.000000  -0.000000   0.000000  -0.000000   0.000002
     6  C    0.000001  -0.000000   0.000000  -0.000000  -0.000000  -0.001952
     7  C    0.000013   0.000001  -0.000000   0.000000   0.000000  -0.000060
     8  O    0.000000   0.000000   0.000000   0.000000   0.000000  -0.000000
     9  C   -0.000015  -0.000000   0.000000  -0.000001  -0.000001  -0.000000
    10  C    0.001142   0.000004  -0.000011  -0.000025  -0.000017  -0.000003
    11  C   -0.000001  -0.000002   0.000000   0.000044  -0.000022  -0.000000
    12  C   -0.000020  -0.000329  -0.000006  -0.005057   0.001815   0.000000
    13  N    0.000793  -0.000347   0.001106  -0.015249  -0.024810  -0.000000
    14  C   -0.021789   0.000247   0.001467   0.001699   0.000312  -0.000000
    15  C    0.383780  -0.022584  -0.019412   0.001585  -0.001498   0.000000
    16  C   -0.022651   0.383356   0.383937  -0.020436  -0.025355  -0.000000
    17  C   -0.000080  -0.022221  -0.019152   0.382961   0.381818  -0.000000
    18  O   -0.000012   0.000000   0.000000   0.000000   0.000000  -0.000384
    19  C    0.000000  -0.000000  -0.000000   0.000000   0.000000   0.380770
    20  H    0.000034   0.000004  -0.000006  -0.000000  -0.000001   0.000000
    21  H    0.000000  -0.000000  -0.000000  -0.000000  -0.000000   0.000000
    22  H   -0.007081  -0.000023  -0.000032  -0.000031   0.000286   0.000000
    23  H   -0.000000   0.000000  -0.000000   0.000000   0.000000   0.000070
    24  H    0.000000  -0.000000   0.000000  -0.000000   0.000000   0.000000
    25  H   -0.000000  -0.000000   0.000000  -0.000000   0.000000  -0.000000
    26  H   -0.000000   0.000000  -0.000000  -0.000002   0.000000   0.000000
    27  H   -0.000000  -0.000000   0.000000  -0.000000  -0.000000   0.000000
    28  H   -0.000005  -0.000349  -0.000013   0.000048  -0.000070   0.000000
    29  H    0.000001   0.000039  -0.000001  -0.000270   0.000105  -0.000000
    30  H   -0.023102  -0.005224   0.000481  -0.000041   0.000003   0.000000
    31  H    0.636516   0.001951  -0.005075  -0.000012   0.000189   0.000000
    32  H    0.001951   0.640094  -0.023165  -0.003756   0.001934   0.000000
    33  H   -0.005075  -0.023165   0.625504   0.000146  -0.003553   0.000000
    34  H   -0.000012  -0.003756   0.000146   0.620773  -0.023914  -0.000000
    35  H    0.000189   0.001934  -0.003553  -0.023914   0.634781  -0.000000
    36  H    0.000000   0.000000   0.000000  -0.000000  -0.000000   0.607373
    37  H   -0.000000  -0.000000  -0.000000   0.000000   0.000000  -0.022099
    38  H    0.000000   0.000000  -0.000000  -0.000000  -0.000000  -0.018405
              37         38
     1  C   -0.020510  -0.021136
     2  C   -0.005653   0.000659
     3  C    0.000061  -0.000024
     4  C   -0.000000   0.000003
     5  C   -0.000016  -0.000001
     6  C    0.001131  -0.001727
     7  C    0.000014  -0.000069
     8  O    0.000000  -0.000000
     9  C    0.000000  -0.000000
    10  C    0.000000  -0.000002
    11  C    0.000000   0.000000
    12  C   -0.000000   0.000000
    13  N    0.000000  -0.000000
    14  C    0.000000   0.000000
    15  C    0.000000  -0.000000
    16  C   -0.000000   0.000000
    17  C   -0.000000   0.000000
    18  O    0.000063  -0.000292
    19  C    0.382776   0.380512
    20  H   -0.000000   0.000000
    21  H   -0.000000  -0.000000
    22  H   -0.000000   0.000000
    23  H    0.000166   0.000070
    24  H   -0.000003   0.000000
    25  H    0.000000  -0.000000
    26  H   -0.000000   0.000000
    27  H   -0.000000  -0.000000
    28  H    0.000000  -0.000000
    29  H    0.000000   0.000000
    30  H   -0.000000   0.000000
    31  H   -0.000000   0.000000
    32  H   -0.000000   0.000000
    33  H   -0.000000  -0.000000
    34  H    0.000000  -0.000000
    35  H    0.000000  -0.000000
    36  H   -0.022099  -0.018405
    37  H    0.624943  -0.021885
    38  H   -0.021885   0.606755
 Mulliken charges:
               1
     1  C    0.034913
     2  C   -0.080590
     3  C   -0.047596
     4  C   -0.086327
     5  C    0.132698
     6  C   -0.068349
     7  C    0.181785
     8  O   -0.246303
     9  C    0.084818
    10  C   -0.073475
    11  C   -0.103948
    12  C   -0.013560
    13  N   -0.283038
    14  C    0.045686
    15  C   -0.112501
    16  C   -0.108580
    17  C   -0.018854
    18  O   -0.230832
    19  C   -0.177545
    20  H    0.068735
    21  H    0.055057
    22  H    0.060078
    23  H    0.057231
    24  H    0.067208
    25  H    0.069841
    26  H    0.056911
    27  H    0.077022
    28  H    0.037831
    29  H    0.062956
    30  H    0.063998
    31  H    0.055421
    32  H    0.050369
    33  H    0.057784
    34  H    0.061538
    35  H    0.057998
    36  H    0.075065
    37  H    0.061013
    38  H    0.075542
 Sum of Mulliken charges =  -0.00000
 Mulliken charges with hydrogens summed into heavy atoms:
               1
     1  C    0.034913
     2  C   -0.023359
     3  C    0.019613
     4  C   -0.016487
     5  C    0.132698
     6  C   -0.068349
     7  C    0.181785
     8  O   -0.246303
     9  C    0.139875
    10  C   -0.004741
    11  C    0.029985
    12  C    0.087228
    13  N   -0.283038
    14  C    0.105764
    15  C    0.006918
    16  C   -0.000427
    17  C    0.100681
    18  O   -0.230832
    19  C    0.034075
 Electronic spatial extent (au):  <R**2>=           4936.7257
 Charge=             -0.0000 electrons
 Dipole moment (field-independent basis, Debye):
    X=              0.5757    Y=             -0.1199    Z=              0.9788  Tot=              1.1419
 Quadrupole moment (field-independent basis, Debye-Ang):
   XX=            -97.2005   YY=           -110.2200   ZZ=           -104.7317
   XY=              1.4702   XZ=              3.3586   YZ=             -4.5093
 Traceless Quadrupole moment (field-independent basis, Debye-Ang):
   XX=              6.8502   YY=             -6.1693   ZZ=             -0.6809
   XY=              1.4702   XZ=              3.3586   YZ=             -4.5093
 Octapole moment (field-independent basis, Debye-Ang**2):
  XXX=             -1.2119  YYY=            -10.6715  ZZZ=              8.5498  XYY=              0.1584
  XXY=              2.0696  XXZ=             -2.3826  XZZ=              2.6704  YZZ=              0.0587
  YYZ=             -4.9140  XYZ=             -7.4995
 Hexadecapole moment (field-independent basis, Debye-Ang**3):
 XXXX=          -4244.0769 YYYY=          -1431.1126 ZZZZ=           -466.1786 XXXY=            -19.3705
 XXXZ=             28.1981 YYYX=             -1.8749 YYYZ=             -2.8465 ZZZX=            -12.1874
 ZZZY=              5.6325 XXYY=           -944.3460 XXZZ=           -819.0394 YYZZ=           -313.4030
 XXYZ=              6.0238 YYXZ=             13.1254 ZZXY=              7.9268
 N-N= 1.499796622274D+03 E-N=-4.894870449347D+03  KE= 8.035573564730D+02
 ******************************Gaussian NBO Version 3.1******************************
             N A T U R A L   A T O M I C   O R B I T A L   A N D
          N A T U R A L   B O N D   O R B I T A L   A N A L Y S I S
 ******************************Gaussian NBO Version 3.1******************************
       /RESON  / : Allow strongly delocalized NBO set
       /NLMO   / : Form Natural Localized Molecular Orbitals
       /NMR /    : Analyze NMR Sheilding Tensor 

 Analyzing the SCF density

 Job title: Title Card Required                                             

 Storage needed:     43472 in NPA,     53775 in NBO,    102144 in NLMO ( 104850000 available)
 GSVD:  LWork=      -13908 too small for GESVD, short by       66690 words or       66690 for optimal perf.


 NATURAL POPULATIONS:  Natural atomic orbital occupancies 
                                                          
   NAO  Atom  No  lang   Type(AO)    Occupancy      Energy
 ----------------------------------------------------------
     1    C    1  S      Cor( 1S)     1.99991     -10.98340
     2    C    1  S      Val( 2S)     1.08165      -0.19991
     3    C    1  px     Val( 2p)     0.95596       0.15154
     4    C    1  py     Val( 2p)     0.94870       0.14284
     5    C    1  pz     Val( 2p)     0.93629       0.04137

     6    C    2  S      Cor( 1S)     1.99995     -10.94552
     7    C    2  S      Val( 2S)     1.07986      -0.18428
     8    C    2  px     Val( 2p)     0.98146       0.14070
     9    C    2  py     Val( 2p)     0.97668       0.14481
    10    C    2  pz     Val( 2p)     1.03737       0.02081

    11    C    3  S      Cor( 1S)     1.99994     -10.96301
    12    C    3  S      Val( 2S)     1.08009      -0.18789
    13    C    3  px     Val( 2p)     0.98124       0.13514
    14    C    3  py     Val( 2p)     0.98233       0.13602
    15    C    3  pz     Val( 2p)     0.96281       0.03149

    16    C    4  S      Cor( 1S)     1.99994     -10.94686
    17    C    4  S      Val( 2S)     1.07680      -0.18379
    18    C    4  px     Val( 2p)     0.97688       0.14122
    19    C    4  py     Val( 2p)     0.99298       0.13356
    20    C    4  pz     Val( 2p)     1.04912       0.01555

    21    C    5  S      Cor( 1S)     1.99978     -11.03177
    22    C    5  S      Val( 2S)     1.06005      -0.21310
    23    C    5  px     Val( 2p)     0.84738       0.14387
    24    C    5  py     Val( 2p)     0.93799       0.14366
    25    C    5  pz     Val( 2p)     0.96492       0.00807

    26    C    6  S      Cor( 1S)     1.99991     -10.96030
    27    C    6  S      Val( 2S)     1.08603      -0.20659
    28    C    6  px     Val( 2p)     0.98187       0.13276
    29    C    6  py     Val( 2p)     0.97280       0.13331
    30    C    6  pz     Val( 2p)     1.09055      -0.00385

    31    C    7  S      Cor( 1S)     1.99996     -11.05537
    32    C    7  S      Val( 2S)     1.07760      -0.24466
    33    C    7  px     Val( 2p)     0.93750       0.10678
    34    C    7  py     Val( 2p)     0.85189       0.16410
    35    C    7  pz     Val( 2p)     0.89424       0.00816

    36    O    8  S      Cor( 1S)     1.99999     -20.20609
    37    O    8  S      Val( 2S)     1.73367      -1.01803
    38    O    8  px     Val( 2p)     1.28591      -0.11336
    39    O    8  py     Val( 2p)     1.65516      -0.28403
    40    O    8  pz     Val( 2p)     1.57751      -0.24658

    41    C    9  S      Cor( 1S)     1.99987     -11.06019
    42    C    9  S      Val( 2S)     1.08619      -0.24048
    43    C    9  px     Val( 2p)     0.92727       0.06688
    44    C    9  py     Val( 2p)     0.94351       0.07614
    45    C    9  pz     Val( 2p)     0.88828       0.08788

    46    C   10  S      Cor( 1S)     1.99996     -11.00727
    47    C   10  S      Val( 2S)     1.10277      -0.23527
    48    C   10  px     Val( 2p)     1.00210       0.05957
    49    C   10  py     Val( 2p)     0.98581       0.06766
    50    C   10  pz     Val( 2p)     1.00008       0.06796

    51    C   11  S      Cor( 1S)     1.99996     -10.99027
    52    C   11  S      Val( 2S)     1.09124      -0.20882
    53    C   11  px     Val( 2p)     0.96425       0.08619
    54    C   11  py     Val( 2p)     1.00328       0.07451
    55    C   11  pz     Val( 2p)     1.02535       0.07528

    56    C   12  S      Cor( 1S)     1.99993     -11.01555
    57    C   12  S      Val( 2S)     1.07341      -0.20143
    58    C   12  px     Val( 2p)     0.99195       0.07243
    59    C   12  py     Val( 2p)     0.97848       0.07901
    60    C   12  pz     Val( 2p)     0.91495       0.10563

    61    N   13  S      Cor( 1S)     1.99999     -15.24579
    62    N   13  S      Val( 2S)     1.45028      -0.59732
    63    N   13  px     Val( 2p)     1.08738       0.02417
    64    N   13  py     Val( 2p)     1.35677      -0.07651
    65    N   13  pz     Val( 2p)     1.37693      -0.08618

    66    C   14  S      Cor( 1S)     1.99993     -11.02534
    67    C   14  S      Val( 2S)     1.08762      -0.21851
    68    C   14  px     Val( 2p)     0.92726       0.09588
    69    C   14  py     Val( 2p)     0.91616       0.09777
    70    C   14  pz     Val( 2p)     0.97437       0.08782

    71    C   15  S      Cor( 1S)     1.99997     -10.97613
    72    C   15  S      Val( 2S)     1.08889      -0.19644
    73    C   15  px     Val( 2p)     0.97690       0.08648
    74    C   15  py     Val( 2p)     0.98710       0.09163
    75    C   15  pz     Val( 2p)     1.02994       0.08280

    76    C   16  S      Cor( 1S)     1.99998     -10.97706
    77    C   16  S      Val( 2S)     1.07890      -0.18981
    78    C   16  px     Val( 2p)     0.98553       0.08848
    79    C   16  py     Val( 2p)     0.99556       0.08544
    80    C   16  pz     Val( 2p)     1.01682       0.08522

    81    C   17  S      Cor( 1S)     1.99994     -11.00726
    82    C   17  S      Val( 2S)     1.07458      -0.19525
    83    C   17  px     Val( 2p)     0.93327       0.10439
    84    C   17  py     Val( 2p)     0.94975       0.08832
    85    C   17  pz     Val( 2p)     1.00841       0.07582

    86    O   18  S      Cor( 1S)     1.99999     -20.11336
    87    O   18  S      Val( 2S)     1.80602      -1.06171
    88    O   18  px     Val( 2p)     1.87849      -0.33978
    89    O   18  py     Val( 2p)     1.34205      -0.11427
    90    O   18  pz     Val( 2p)     1.21481      -0.12125

    91    C   19  S      Cor( 1S)     1.99997     -10.97557
    92    C   19  S      Val( 2S)     1.07802      -0.18596
    93    C   19  px     Val( 2p)     1.03699       0.07473
    94    C   19  py     Val( 2p)     0.99006       0.08325
    95    C   19  pz     Val( 2p)     1.04133       0.07291

    96    H   20  S      Val( 1S)     0.95261       0.05094

    97    H   21  S      Val( 1S)     0.98160       0.03380

    98    H   22  S      Val( 1S)     0.97245       0.06207

    99    H   23  S      Val( 1S)     0.96798       0.06804

   100    H   24  S      Val( 1S)     0.96099       0.06243

   101    H   25  S      Val( 1S)     0.95508       0.07577

   102    H   26  S      Val( 1S)     0.96375       0.05911

   103    H   27  S      Val( 1S)     0.94504       0.07828

   104    H   28  S      Val( 1S)     0.99024       0.04854

   105    H   29  S      Val( 1S)     0.96391       0.06090

   106    H   30  S      Val( 1S)     0.95697       0.07477

   107    H   31  S      Val( 1S)     0.96479       0.06925

   108    H   32  S      Val( 1S)     0.96894       0.06374

   109    H   33  S      Val( 1S)     0.96151       0.06873

   110    H   34  S      Val( 1S)     0.96388       0.05953

   111    H   35  S      Val( 1S)     0.96938       0.06770

   112    H   36  S      Val( 1S)     0.94130       0.08235

   113    H   37  S      Val( 1S)     0.95561       0.07425

   114    H   38  S      Val( 1S)     0.94071       0.08229


 Summary of Natural Population Analysis:                  
                                                          
                                       Natural Population 
                Natural  -----------------------------------------------
    Atom  No    Charge         Core      Valence    Rydberg      Total
 -----------------------------------------------------------------------
      C    1    0.07749      1.99991     3.92260    0.00000     5.92251
      C    2   -0.07531      1.99995     4.07536    0.00000     6.07531
      C    3   -0.00641      1.99994     4.00647    0.00000     6.00641
      C    4   -0.09573      1.99994     4.09579    0.00000     6.09573
      C    5    0.18988      1.99978     3.81034    0.00000     5.81012
      C    6   -0.13115      1.99991     4.13124    0.00000     6.13115
      C    7    0.23881      1.99996     3.76123    0.00000     5.76119
      O    8   -0.25224      1.99999     6.25225    0.00000     8.25224
      C    9    0.15487      1.99987     3.84526    0.00000     5.84513
      C   10   -0.09071      1.99996     4.09075    0.00000     6.09071
      C   11   -0.08408      1.99996     4.08412    0.00000     6.08408
      C   12    0.04128      1.99993     3.95878    0.00000     5.95872
      N   13   -0.27134      1.99999     5.27135    0.00000     7.27134
      C   14    0.09467      1.99993     3.90540    0.00000     5.90533
      C   15   -0.08280      1.99997     4.08283    0.00000     6.08280
      C   16   -0.07680      1.99998     4.07681    0.00000     6.07680
      C   17    0.03405      1.99994     3.96601    0.00000     5.96595
      O   18   -0.24137      1.99999     6.24138    0.00000     8.24137
      C   19   -0.14637      1.99997     4.14640    0.00000     6.14637
      H   20    0.04739      0.00000     0.95261    0.00000     0.95261
      H   21    0.01840      0.00000     0.98160    0.00000     0.98160
      H   22    0.02755      0.00000     0.97245    0.00000     0.97245
      H   23    0.03202      0.00000     0.96798    0.00000     0.96798
      H   24    0.03901      0.00000     0.96099    0.00000     0.96099
      H   25    0.04492      0.00000     0.95508    0.00000     0.95508
      H   26    0.03625      0.00000     0.96375    0.00000     0.96375
      H   27    0.05496      0.00000     0.94504    0.00000     0.94504
      H   28    0.00976      0.00000     0.99024    0.00000     0.99024
      H   29    0.03609      0.00000     0.96391    0.00000     0.96391
      H   30    0.04303      0.00000     0.95697    0.00000     0.95697
      H   31    0.03521      0.00000     0.96479    0.00000     0.96479
      H   32    0.03106      0.00000     0.96894    0.00000     0.96894
      H   33    0.03849      0.00000     0.96151    0.00000     0.96151
      H   34    0.03612      0.00000     0.96388    0.00000     0.96388
      H   35    0.03062      0.00000     0.96938    0.00000     0.96938
      H   36    0.05870      0.00000     0.94130    0.00000     0.94130
      H   37    0.04439      0.00000     0.95561    0.00000     0.95561
      H   38    0.05929      0.00000     0.94071    0.00000     0.94071
 =======================================================================
   * Total *   -0.00000     37.99889   100.00111    0.00000   138.00000

                                 Natural Population      
 --------------------------------------------------------
   Core                      37.99889 ( 99.9971% of  38)
   Valence                  100.00111 (100.0011% of 100)
   Natural Minimal Basis    138.00000 (100.0000% of 138)
   Natural Rydberg Basis      0.00000 (  0.0000% of 138)
 --------------------------------------------------------

    Atom  No          Natural Electron Configuration
 ----------------------------------------------------------------------------
      C    1      [core]2S( 1.08)2p( 2.84)
      C    2      [core]2S( 1.08)2p( 3.00)
      C    3      [core]2S( 1.08)2p( 2.93)
      C    4      [core]2S( 1.08)2p( 3.02)
      C    5      [core]2S( 1.06)2p( 2.75)
      C    6      [core]2S( 1.09)2p( 3.05)
      C    7      [core]2S( 1.08)2p( 2.68)
      O    8      [core]2S( 1.73)2p( 4.52)
      C    9      [core]2S( 1.09)2p( 2.76)
      C   10      [core]2S( 1.10)2p( 2.99)
      C   11      [core]2S( 1.09)2p( 2.99)
      C   12      [core]2S( 1.07)2p( 2.89)
      N   13      [core]2S( 1.45)2p( 3.82)
      C   14      [core]2S( 1.09)2p( 2.82)
      C   15      [core]2S( 1.09)2p( 2.99)
      C   16      [core]2S( 1.08)2p( 3.00)
      C   17      [core]2S( 1.07)2p( 2.89)
      O   18      [core]2S( 1.81)2p( 4.44)
      C   19      [core]2S( 1.08)2p( 3.07)
      H   20            1S( 0.95)
      H   21            1S( 0.98)
      H   22            1S( 0.97)
      H   23            1S( 0.97)
      H   24            1S( 0.96)
      H   25            1S( 0.96)
      H   26            1S( 0.96)
      H   27            1S( 0.95)
      H   28            1S( 0.99)
      H   29            1S( 0.96)
      H   30            1S( 0.96)
      H   31            1S( 0.96)
      H   32            1S( 0.97)
      H   33            1S( 0.96)
      H   34            1S( 0.96)
      H   35            1S( 0.97)
      H   36            1S( 0.94)
      H   37            1S( 0.96)
      H   38            1S( 0.94)


 NATURAL BOND ORBITAL ANALYSIS:

                       Occupancies       Lewis Structure    Low   High
           Occ.    -------------------  -----------------   occ   occ
  Cycle   Thresh.   Lewis   Non-Lewis     CR  BD  3C  LP    (L)   (NL)   Dev
 =============================================================================
   1(1)    1.90   134.44089   3.55911     19  43   0   7     3      3    0.45
   2(2)    1.90   134.44089   3.55911     19  43   0   7     3      3    0.45
   3(1)    1.80   134.35898   3.64102     19  42   0   8     3      3    0.45
   4(2)    1.80   134.35898   3.64102     19  42   0   8     3      3    0.45
   5(1)    1.70   134.35898   3.64102     19  42   0   8     3      3    0.45
   6(2)    1.70   134.35898   3.64102     19  42   0   8     3      3    0.45
   7(1)    1.60   135.52787   2.47213     19  44   0   6     1      3    0.43
   8(2)    1.60   136.13542   1.86458     19  45   0   5     0      3    0.43
   9(3)    1.60   136.09640   1.90360     19  45   0   5     0      3    0.45
  10(4)    1.60   136.13542   1.86458     19  45   0   5     0      3    0.43
  11(1)    1.50   136.13542   1.86458     19  45   0   5     0      3    0.43
  12(2)    1.50   136.09640   1.90360     19  45   0   5     0      3    0.45
  13(3)    1.50   136.13542   1.86458     19  45   0   5     0      3    0.43
  14(1)    1.60   136.13542   1.86458     19  45   0   5     0      3    0.43
 -----------------------------------------------------------------------------

 Structure accepted: RESONANCE keyword permits strongly delocalized structure

 --------------------------------------------------------
   Core                     37.99888 ( 99.997% of  38)
   Valence Lewis            98.13653 ( 98.137% of 100)
  ==================       ============================
   Total Lewis             136.13542 ( 98.649% of 138)
  -----------------------------------------------------
   Valence non-Lewis         1.86458 (  1.351% of 138)
   Rydberg non-Lewis         0.00000 (  0.000% of 138)
  ==================       ============================
   Total non-Lewis           1.86458 (  1.351% of 138)
 --------------------------------------------------------


       (Occupancy)   Bond orbital/ Coefficients/ Hybrids
 ---------------------------------------------------------------------------------
     1. (1.98530) BD ( 1) C   1 - C   2  
                ( 50.02%)   0.7073* C   1 s( 33.73%)p 1.96( 66.27%)
                                            0.0000  0.5808 -0.6079 -0.4412 -0.3138
                ( 49.98%)   0.7069* C   2 s( 34.47%)p 1.90( 65.53%)
                                            0.0001  0.5871  0.5952  0.4428  0.3240
     2. (1.65941) BD ( 2) C   1 - C   2  
                ( 45.48%)   0.6744* C   1 s(  0.00%)p 1.00(100.00%)
                                            0.0000 -0.0014 -0.2780 -0.2737  0.9208
                ( 54.52%)   0.7384* C   2 s(  0.00%)p 1.00(100.00%)
                                           -0.0000 -0.0014 -0.2852 -0.2843  0.9153
     3. (1.98115) BD ( 1) C   1 - C   6  
                ( 49.45%)   0.7032* C   1 s( 34.62%)p 1.89( 65.38%)
                                            0.0001  0.5884  0.7309 -0.3220  0.1258
                ( 50.55%)   0.7110* C   6 s( 35.60%)p 1.81( 64.40%)
                                            0.0000  0.5966 -0.7079  0.3637 -0.1034
     4. (1.98739) BD ( 1) C   1 - C  19  
                ( 50.13%)   0.7081* C   1 s( 31.65%)p 2.16( 68.35%)
                                           -0.0000  0.5625 -0.1376  0.7917  0.1946
                ( 49.87%)   0.7062* C  19 s( 25.59%)p 2.91( 74.41%)
                                            0.0001  0.5059  0.1642 -0.8244 -0.1939
     5. (1.98978) BD ( 1) C   2 - C   3  
                ( 49.56%)   0.7040* C   2 s( 34.19%)p 1.92( 65.81%)
                                            0.0001  0.5847  0.1128 -0.7767 -0.2052
                ( 50.44%)   0.7102* C   3 s( 34.33%)p 1.91( 65.67%)
                                            0.0000  0.5859 -0.1278  0.7736  0.2047
     6. (1.98878) BD ( 1) C   2 - H  23  
                ( 51.62%)   0.7185* C   2 s( 31.34%)p 2.19( 68.66%)
                                           -0.0001  0.5598 -0.7427  0.3462 -0.1230
                ( 48.38%)   0.6955* H  23 s(100.00%)
[...]
    4       0.1403       -1.0324       1.1726        -0.8385       0.9788
    8       0.3073       -0.2406       0.5479        -0.7301       1.0374
   13       0.8333       -0.1897       1.0230        -0.6512       1.4844
   15     -10.7657      -10.8942       0.1285       -11.5039       0.7381
   16     -10.5797      -10.9626       0.3828       -11.3486       0.7689
   17    -118.2700     -128.7222      10.4522      -127.7129       9.4428
   18     -26.5631      -51.1880      24.6249       -51.5391      24.9759
   20      -1.0859       -1.2271       0.1412        -1.1963       0.1104
   24      -0.3400       -0.6282       0.2881        -1.3844       1.0444
   43      -0.4070       -1.8785       1.4715        -1.3707       0.9637
   45      -0.3689       -1.6372       1.2683        -1.3350       0.9661
   63     271.9251       -0.0055     271.9306        -0.0055     271.9305
   68     -34.8510      -69.9986      35.1476       -69.9096      35.0586
   69    -426.2822     -463.1234      36.8412      -465.9543      39.6721
 Sum     -356.8163     -742.2460     385.4296      -746.6461     389.8297

 Contributions to Isotropic shielding for atom   19 (   218.0510 ppm):
                         Standard Origin              Atomic Origin
 NLMO      Total    Paramagnetic  Diamagnetic   Paramagnetic  Diamagnetic
    1      -1.9522       -1.3513      -0.6009        -2.4419       0.4897
    2      -0.8989       -0.6556      -0.2433        -2.5519       1.6530
    3      -1.0825       -1.5136       0.4311        -1.3827       0.3001
    4       3.8749      -11.3583      15.2332        -3.0862       6.9611
    6      -0.6461       -1.4780       0.8319        -1.6825       1.0364
    8       0.8106       -0.2717       1.0822        -0.3752       1.1857
   15      -0.3997        0.0900      -0.4898        -1.2578       0.8581
   17      -0.4408       -0.3088      -0.1320        -1.1824       0.7416
   18       0.2694        0.2470       0.0224        -1.2156       1.4850
   43       7.1101       -3.3497      10.4598        -4.3455      11.4556
   44       3.9799        5.1706      -1.1908        -7.2024      11.1822
   45       6.9400       -6.1036      13.0436        -4.4740      11.4140
   64     200.0789       -0.0037     200.0826         0.0034     200.0755
 Sum      217.6435      -20.8867     238.5301       -31.1945     248.8380

 Contributions to Isotropic shielding for atom   20 (    31.0278 ppm):
                         Standard Origin              Atomic Origin
 NLMO      Total    Paramagnetic  Diamagnetic   Paramagnetic  Diamagnetic
   16       1.6268        1.5933       0.0335         0.7885       0.8383
   17      -0.7204       -0.8872       0.1669        -1.6717       0.9514
   18       0.3515       -0.2583       0.6098        -1.3263       1.6778
   20       1.2017        1.2741      -0.0724         0.4605       0.7411
   23       1.2025        1.2040      -0.0015         0.3799       0.8226
   24      25.9066        0.0019      25.9047         0.4452      25.4614
   29      -0.1874       -1.3308       1.1433        -0.8038       0.6164
   33      -0.1794       -0.3751       0.1957        -1.0653       0.8860
   36      -0.1406       -1.1337       0.9931        -0.9290       0.7883
 Sum       29.0612        0.0881      28.9732        -3.7221      32.7833

 Contributions to Isotropic shielding for atom   21 (    31.1829 ppm):
                         Standard Origin              Atomic Origin
 NLMO      Total    Paramagnetic  Diamagnetic   Paramagnetic  Diamagnetic
   13      -0.0347       -0.4746       0.4399        -1.3446       1.3098
   19       0.8489        0.6499       0.1990        -0.5804       1.4293
   20       0.9568       -0.0862       1.0430         0.0965       0.8604
   21       0.4256        1.2233      -0.7977        -0.7482       1.1738
   22      26.3949        0.3134      26.0815         0.8140      25.5809
   26      -0.0773       -1.3010       1.2238        -1.2471       1.1698
   65       0.7200        0.1194       0.6007         1.0156      -0.2956
 Sum       29.2343        0.4440      28.7902        -1.9942      31.2284

 Contributions to Isotropic shielding for atom   22 (    31.6858 ppm):
                         Standard Origin              Atomic Origin
 NLMO      Total    Paramagnetic  Diamagnetic   Paramagnetic  Diamagnetic
   13      -0.0924       -0.6162       0.5238        -1.3102       1.2178
   19       0.0615       -0.4571       0.5186        -0.9943       1.0558
   23       1.2458       -0.6528       1.8986         0.2897       0.9561
   31       0.8740        0.3525       0.5215        -0.5635       1.4375
   34      26.0183        0.3242      25.6941         0.4750      25.5432
   37      -0.0438       -1.5395       1.4957        -1.2266       1.1829
   38       0.2374       -0.9250       1.1625        -0.5710       0.8084
   42       0.0561       -0.9827       1.0388        -0.6961       0.7522
 Sum       28.3571       -4.4967      32.8537        -4.5969      32.9540

 Contributions to Isotropic shielding for atom   23 (    25.8899 ppm):
                         Standard Origin              Atomic Origin
 NLMO      Total    Paramagnetic  Diamagnetic   Paramagnetic  Diamagnetic
    1      -1.4612       -2.6710       1.2097        -2.0367       0.5755
    2       0.7586        1.5511      -0.7925        -2.6036       3.3622
    4      -0.6878        0.6970      -1.3848        -1.7654       1.0776
    5      -1.9839       -1.3146      -0.6693        -2.6872       0.7033
    6      27.0301        0.9502      26.0799         1.5453      25.4848
    9      -0.0860       -0.1031       0.0170        -1.1901       1.1041
   13       0.5875        0.8297      -0.2422        -0.6645       1.2520
   44      -0.1222       -1.4327       1.3106        -0.9021       0.7799
 Sum       24.0352       -1.4933      25.5285       -10.3043      34.3395

 Contributions to Isotropic shielding for atom   24 (    25.2595 ppm):
                         Standard Origin              Atomic Origin
 NLMO      Total    Paramagnetic  Diamagnetic   Paramagnetic  Diamagnetic
    2       1.1586        0.7021       0.4565         0.0974       1.0613
    5      -2.0678       -1.9039      -0.1640        -2.8066       0.7387
    6      -0.1002       -0.0217      -0.0785        -1.2299       1.1297
    7      -1.8546       -2.6986       0.8440        -2.5768       0.7222
    8       0.5972        1.2334      -0.6362        -2.2257       2.8229
    9      26.8818        1.1148      25.7670         1.5909      25.2909
   11      -0.1112        0.5995      -0.7108        -1.2178       1.1065
   13       0.4599        0.7318      -0.2719        -0.9130       1.3729
 Sum       24.9637       -0.2425      25.2062        -9.2814      34.2451

 Contributions to Isotropic shielding for atom   25 (    25.6350 ppm):
                         Standard Origin              Atomic Origin
 NLMO      Total    Paramagnetic  Diamagnetic   Paramagnetic  Diamagnetic
    2       1.2066       -0.4605       1.6671        -0.0233       1.2299
    7      -1.7773       -0.9906      -0.7867        -2.4577       0.6804
    8       0.3235       -0.0619       0.3854        -3.0795       3.4030
    9      -0.0534       -1.0260       0.9726        -1.1503       1.0968
   10      -0.8780       -2.4779       1.5999        -1.4352       0.5572
   11      26.5075        1.0876      25.4199         1.3081      25.1993
   14      -0.4548        0.3033      -0.7581        -2.0572       1.6024
   65      -0.2369       -0.4422       0.2053         0.7712      -1.0081
 Sum       24.6371       -4.0683      28.7054        -8.1239      32.7611

 Contributions to Isotropic shielding for atom   26 (    31.7979 ppm):
                         Standard Origin              Atomic Origin
 NLMO      Total    Paramagnetic  Diamagnetic   Paramagnetic  Diamagnetic
   21       1.3789        0.3112       1.0677         0.4857       0.8932
   22      -0.1676        0.3709      -0.5385        -1.3287       1.1612
   25       0.8805        1.9036      -1.0231        -0.1710       1.0515
   26      26.3420       -0.1286      26.4706         0.4996      25.8423
   27       2.0168        2.0613      -0.0444         0.1246       1.8922
   29       0.1194       -0.3307       0.4501        -0.9222       1.0416
 Sum       30.5700        4.1876      26.3824        -1.3120      31.8821

 Contributions to Isotropic shielding for atom   27 (    30.9099 ppm):
                         Standard Origin              Atomic Origin
 NLMO      Total    Paramagnetic  Diamagnetic   Paramagnetic  Diamagnetic
   19      -0.1239        0.4557      -0.5796        -2.0068       1.8829
   21       1.5124       -0.1816       1.6941         0.6460       0.8664
   25       1.0561        1.3434      -0.2873         0.0862       0.9700
   26       1.9098        2.2764      -0.3666         0.1538       1.7559
   27      25.7460        0.1298      25.6162         0.4940      25.2520
   30      -0.0088       -0.5852       0.5764        -1.0832       1.0744
   65      -0.4554       -0.2816      -0.1739         0.6553      -1.1107
 Sum       29.6362        3.1569      26.4794        -1.0548      30.6910

 Contributions to Isotropic shielding for atom   28 (    32.3251 ppm):
                         Standard Origin              Atomic Origin
 NLMO      Total    Paramagnetic  Diamagnetic   Paramagnetic  Diamagnetic
   23      -0.1375        0.3008      -0.4383        -1.0406       0.9031
   25       1.1563        0.0090       1.1474         0.2514       0.9049
   26       0.0647       -0.0605       0.1251        -0.9822       1.0468
   28       1.1367       -0.3494       1.4861         0.4326       0.7040
   29      26.8273        0.3504      26.4770         0.7234      26.1039
   30       1.6078        2.3455      -0.7377        -0.2176       1.8254
   39      -0.2605       -1.2381       0.9776        -0.8460       0.5855
 Sum       30.3947        1.3576      29.0371        -1.6790      32.0737

 Contributions to Isotropic shielding for atom   29 (    31.5926 ppm):
                         Standard Origin              Atomic Origin
 NLMO      Total    Paramagnetic  Diamagnetic   Paramagnetic  Diamagnetic
   25       0.8104        1.2417      -0.4313        -0.2974       1.1078
   27       0.0811        0.3386      -0.2575        -1.0516       1.1327
   28       0.7771        0.9491      -0.1720        -0.4216       1.1987
   29       1.5266        1.7632      -0.2366        -0.1759       1.7025
   30      26.3545        0.0521      26.3024         0.7587      25.5957
   32      -0.2965        0.6874      -0.9839        -1.2475       0.9509
   41      -0.0822       -1.5182       1.4360        -0.9211       0.8390
 Sum       29.1709        3.5139      25.6570        -3.3565      32.5274

 Contributions to Isotropic shielding for atom   30 (    31.9481 ppm):
                         Standard Origin              Atomic Origin
 NLMO      Total    Paramagnetic  Diamagnetic   Paramagnetic  Diamagnetic
   18       0.0083       -0.3507       0.3590        -1.2739       1.2823
   23      -0.2564        0.1345      -0.3909        -1.4065       1.1502
   33       1.8689       -0.8702       2.7391         1.2938       0.5751
   35       0.4902        1.7006      -1.2104        -0.3858       0.8760
   36      26.0800        0.2153      25.8647         0.4980      25.5820
   37       2.0522        1.1583       0.8939         0.2939       1.7583
   39       0.1121       -1.3193       1.4314        -1.0093       1.1214
 Sum       30.3552        0.6685      29.6868        -1.9899      32.3451

 Contributions to Isotropic shielding for atom   31 (    32.2134 ppm):
                         Standard Origin              Atomic Origin
 NLMO      Total    Paramagnetic  Diamagnetic   Paramagnetic  Diamagnetic
   18      -0.1364       -0.2238       0.0875        -1.0728       0.9365
   33       1.5911       -0.5921       2.1832         0.7883       0.8029
   34      -0.2015        0.2517      -0.4532        -1.3532       1.1517
   35       0.5017        2.0770      -1.5753        -0.3679       0.8696
   36       2.0307        1.0033       1.0274         0.1867       1.8440
   37      26.2595        0.0252      26.2344         0.4359      25.8236
   38       0.3626       -0.7921       1.1547        -0.1760       0.5386
   40       0.1009       -1.1397       1.2406        -0.9442       1.0452
 Sum       30.5087        0.6095      29.8992        -2.5032      33.0119

 Contributions to Isotropic shielding for atom   32 (    32.1569 ppm):
                         Standard Origin              Atomic Origin
 NLMO      Total    Paramagnetic  Diamagnetic   Paramagnetic  Diamagnetic
   31      -0.3664        0.3295      -0.6959        -1.0991       0.7327
   35       1.5606       -1.2819       2.8426         0.7752       0.7854
   36      -0.0318        0.5157      -0.5475        -1.1014       1.0695
   38       1.1363        0.2687       0.8676         0.4213       0.7151
   39      26.3854        0.1397      26.2457         0.4331      25.9523
   40       1.8311        2.8224      -0.9913         0.0365       1.7947
 Sum       30.5153        2.7942      27.7211        -0.5344      31.0497

 Contributions to Isotropic shielding for atom   33 (    32.3073 ppm):
                         Standard Origin              Atomic Origin
 NLMO      Total    Paramagnetic  Diamagnetic   Paramagnetic  Diamagnetic
   31      -0.2337        0.3068      -0.5404        -1.1249       0.8912
   35       1.3430       -0.0712       1.4142         0.5843       0.7587
   37       0.0001        0.9626      -0.9625        -1.1222       1.1223
   38       0.7001        1.4041      -0.7040        -0.0052       0.7053
   39       1.9917        2.3467      -0.3550         0.2476       1.7441
   40      26.2723       -0.0776      26.3500         0.4998      25.7726
   42       0.1087        0.1076       0.0012        -0.9497       1.0584
 Sum       30.1823        4.9789      25.2034        -1.8702      32.0525

 Contributions to Isotropic shielding for atom   34 (    31.7954 ppm):
                         Standard Origin              Atomic Origin
 NLMO      Total    Paramagnetic  Diamagnetic   Paramagnetic  Diamagnetic
   28      -0.4420        1.2097      -1.6517        -1.6180       1.1761
   30      -0.0597       -0.1546       0.0949        -1.0042       0.9445
   32       1.2349       -0.5402       1.7751         0.4174       0.8175
   33      -0.1500        0.2622      -0.4123        -1.0458       0.8958
   38       0.0945        1.1461      -1.0515        -0.6480       0.7426
   39       0.1248        0.0617       0.0631        -0.9108       1.0357
   41      26.4303        0.1654      26.2649         0.8544      25.5759
   42       1.6877        2.1855      -0.4978        -0.1329       1.8206
   67       1.1095       -0.1601       1.2696         1.1110      -0.0015
 Sum       30.0301        4.1757      25.8544        -2.9769      33.0070

 Contributions to Isotropic shielding for atom   35 (    31.4799 ppm):
                         Standard Origin              Atomic Origin
 NLMO      Total    Paramagnetic  Diamagnetic   Paramagnetic  Diamagnetic
   32       1.7024       -1.2125       2.9149         0.4545       1.2479
   33      -0.1880        0.3554      -0.5434        -1.1178       0.9298
   41       1.3453        2.3296      -0.9843        -0.5681       1.9135
   42      26.3339        0.3485      25.9854         0.6707      25.6633
 Sum       29.1936        1.8211      27.3725        -0.5608      29.7544

 Contributions to Isotropic shielding for atom   36 (    30.9301 ppm):
                         Standard Origin              Atomic Origin
 NLMO      Total    Paramagnetic  Diamagnetic   Paramagnetic  Diamagnetic
    2      -0.8152       -0.3799      -0.4353        -1.7084       0.8932
    4       1.8080       -0.5091       2.3171         0.9354       0.8726
    8       0.5570       -0.1344       0.6914        -0.5320       1.0890
   15      -0.3473        0.2090      -0.5563        -1.2535       0.9063
   18       0.1571        0.2699      -0.1128        -1.1970       1.3541
   43      25.7201        0.2084      25.5117         0.3559      25.3642
   44       1.7886        2.6901      -0.9015        -0.0978       1.8864
   45       2.2306        0.3476       1.8830         0.4060       1.8246
 Sum       31.0989        2.7014      28.3974        -3.0915      34.1903

 Contributions to Isotropic shielding for atom   37 (    30.9768 ppm):
                         Standard Origin              Atomic Origin
 NLMO      Total    Paramagnetic  Diamagnetic   Paramagnetic  Diamagnetic
    1      -1.0075        0.2473      -1.2549        -1.9199       0.9123
    2      -0.7390        0.1276      -0.8667        -2.3498       1.6108
    4       1.0535        0.7507       0.3028         0.2934       0.7600
    6      -0.0173       -1.3037       1.2864        -0.9535       0.9363
   18       0.0758        0.1018      -0.0260        -0.9356       1.0114
   43       2.0546        2.4842      -0.4296         0.0690       1.9856
   44      26.2663       -0.1471      26.4134         0.5253      25.7409
   45       2.0913        2.0154       0.0759         0.1248       1.9665
 Sum       29.7776        4.2763      25.5013        -5.1462      34.9238

 Contributions to Isotropic shielding for atom   38 (    31.0236 ppm):
                         Standard Origin              Atomic Origin
 NLMO      Total    Paramagnetic  Diamagnetic   Paramagnetic  Diamagnetic
    2      -0.7841       -0.5354      -0.2486        -1.7033       0.9192
    4       1.9097       -0.9303       2.8400         1.0372       0.8725
    8       0.5158       -0.2262       0.7420        -0.5701       1.0858
   15      -0.2873        0.1805      -0.4678        -1.1971       0.9098
   18       0.0948        0.0958      -0.0010        -1.1956       1.2904
   43       2.1899        0.4983       1.6916         0.3879       1.8021
   44       1.7877        2.3333      -0.5456        -0.0851       1.8728
   45      25.7130        0.2838      25.4293         0.3512      25.3618
 Sum       31.1395        1.6996      29.4399        -2.9749      34.1144
 
 1\1\GINC-GNOSIE-MM\SP\RHF\STO-3G\C16H19N1O2\MBENIDD\30-Apr-2026\0\\# n
 mr=giao hf/sto-3g pop=nbo\\Title Card Required\\0,1\C,0,0.,0.,0.\C,0,1
 .4074,0.,0.\C,0,2.1268,1.194,0.\C,0,1.4502,2.4083,0.0112\C,0,0.0557,2.
 43,0.032\C,0,-0.6775,1.2367,0.0061\C,0,-2.1532,1.348,-0.0544\O,0,-0.50
 52,3.6784,0.0431\C,0,-1.8284,3.7045,0.5963\C,0,-2.7507,2.7333,-0.1236\
 C,0,-2.3428,5.1483,0.4895\C,0,-3.4964,5.3037,-0.5055\N,0,-3.1958,4.614
 5,-1.7602\C,0,-2.9807,3.1551,-1.584\C,0,-4.2021,2.4619,-2.2114\C,0,-5.
 173,3.5806,-2.5356\C,0,-4.2652,4.771,-2.7527\O,0,-2.8786,0.3559,-0.08\
 C,0,-0.7074,-1.3278,-0.021\H,0,-3.7027,2.703,0.425\H,0,-1.7428,3.4457,
 1.6614\H,0,-2.1017,2.8828,-2.1837\H,0,1.9565,-0.9404,-0.0092\H,0,3.213
 8,1.1761,-0.0097\H,0,2.0074,3.3417,0.0104\H,0,-2.7037,5.4746,1.4729\H,
 0,-1.5259,5.8277,0.2143\H,0,-4.4272,4.9339,-0.0562\H,0,-3.6424,6.3748,
 -0.6919\H,0,-4.673,1.7134,-1.5673\H,0,-3.9008,1.9611,-3.1399\H,0,-5.84
 42,3.7548,-1.6863\H,0,-5.7854,3.3545,-3.4133\H,0,-4.7979,5.7252,-2.679
 5\H,0,-3.8223,4.7243,-3.7552\H,0,-1.3538,-1.433,0.8559\H,0,0.0035,-2.1
 612,0.0075\H,0,-1.2919,-1.4368,-0.9399\\Version=EM64L-G16RevB.01\State
 =1-A\HF=-811.0530231\RMSD=7.886e-09\Dipole=-0.29343,0.1527843,0.303937
 9\Quadrupole=2.2387144,-2.4921196,0.2534053,-5.6640306,0.7859618,1.985
 8179\PG=C01 [X(C16H19N1O2)]\\@


 DEFINE YOUR TERMS, YOU WILL PERMIT ME AGAIN TO SAY, 
 OR WE SHALL NEVER UNDERSTAND ONE ANOTHER.

                                    -- VOLTAIRE
 Job cpu time:       0 days  0 hours  3 minutes 41.0 seconds.
 Elapsed time:       0 days  0 hours  1 minutes 57.6 seconds.
 File lengths (MBytes):  RWF=     14 Int=      0 D2E=      0 Chk=      2 Scr=      1
 Normal termination of Gaussian 16 at Thu Apr 30 09:32:21 2026.
