 Entering Gaussian System, Link 0=g16
 Input=4_isoelaeocarpine_c3.gjf
 Output=4_isoelaeocarpine_c3.log
 Initial command:
 /opt/gaussian/g16/l1.exe "/home/mbenidd/Bureau/Elaeocarpines/HF_NMR/4/4_isoelaeocarpine_c3/Gau-13933.inp" -scrdir="/home/mbenidd/Bureau/Elaeocarpines/HF_NMR/4/4_isoelaeocarpine_c3/"
 Entering Link 1 = /opt/gaussian/g16/l1.exe PID=     13935.
  
 Copyright (c) 1988-2017, Gaussian, Inc.  All Rights Reserved.
  
 This is part of the Gaussian(R) 16 program.  It is based on
 the Gaussian(R) 09 system (copyright 2009, Gaussian, Inc.),
 the Gaussian(R) 03 system (copyright 2003, Gaussian, Inc.),
 the Gaussian(R) 98 system (copyright 1998, Gaussian, Inc.),
 the Gaussian(R) 94 system (copyright 1995, Gaussian, Inc.),
 the Gaussian 92(TM) system (copyright 1992, Gaussian, Inc.),
 the Gaussian 90(TM) system (copyright 1990, Gaussian, Inc.),
 the Gaussian 88(TM) system (copyright 1988, Gaussian, Inc.),
 the Gaussian 86(TM) system (copyright 1986, Carnegie Mellon
 University), and the Gaussian 82(TM) system (copyright 1983,
 Carnegie Mellon University). Gaussian is a federally registered
 trademark of Gaussian, Inc.
  
 This software contains proprietary and confidential information,
 including trade secrets, belonging to Gaussian, Inc.
  
 This software is provided under written license and may be
 used, copied, transmitted, or stored only in accord with that
 written license.
  
 The following legend is applicable only to US Government
 contracts under FAR:
  
                    RESTRICTED RIGHTS LEGEND
  
 Use, reproduction and disclosure by the US Government is
 subject to restrictions as set forth in subparagraphs (a)
 and (c) of the Commercial Computer Software - Restricted
 Rights clause in FAR 52.227-19.
  
 Gaussian, Inc.
 340 Quinnipiac St., Bldg. 40, Wallingford CT 06492
  
  
 ---------------------------------------------------------------
 Warning -- This program may not be used in any manner that
 competes with the business of Gaussian, Inc. or will provide
 assistance to any competitor of Gaussian, Inc.  The licensee
 of this program is prohibited from giving any competitor of
 Gaussian, Inc. access to this program.  By using this program,
 the user acknowledges that Gaussian, Inc. is engaged in the
 business of creating and licensing software in the field of
 computational chemistry and represents and warrants to the
 licensee that it is not a competitor of Gaussian, Inc. and that
 it will not use this program in any manner prohibited above.
 ---------------------------------------------------------------
  

 Cite this work as:
 Gaussian 16, Revision B.01,
 M. J. Frisch, G. W. Trucks, H. B. Schlegel, G. E. Scuseria, 
 M. A. Robb, J. R. Cheeseman, G. Scalmani, V. Barone, 
 G. A. Petersson, H. Nakatsuji, X. Li, M. Caricato, A. V. Marenich, 
 J. Bloino, B. G. Janesko, R. Gomperts, B. Mennucci, H. P. Hratchian, 
 J. V. Ortiz, A. F. Izmaylov, J. L. Sonnenberg, D. Williams-Young, 
 F. Ding, F. Lipparini, F. Egidi, J. Goings, B. Peng, A. Petrone, 
 T. Henderson, D. Ranasinghe, V. G. Zakrzewski, J. Gao, N. Rega, 
 G. Zheng, W. Liang, M. Hada, M. Ehara, K. Toyota, R. Fukuda, 
 J. Hasegawa, M. Ishida, T. Nakajima, Y. Honda, O. Kitao, H. Nakai, 
 T. Vreven, K. Throssell, J. A. Montgomery, Jr., J. E. Peralta, 
 F. Ogliaro, M. J. Bearpark, J. J. Heyd, E. N. Brothers, K. N. Kudin, 
 V. N. Staroverov, T. A. Keith, R. Kobayashi, J. Normand, 
 K. Raghavachari, A. P. Rendell, J. C. Burant, S. S. Iyengar, 
 J. Tomasi, M. Cossi, J. M. Millam, M. Klene, C. Adamo, R. Cammi, 
 J. W. Ochterski, R. L. Martin, K. Morokuma, O. Farkas, 
 J. B. Foresman, and D. J. Fox, Gaussian, Inc., Wallingford CT, 2016.
 
 ******************************************
 Gaussian 16:  EM64L-G16RevB.01 20-Dec-2017
                18-May-2026 
 ******************************************
 %nprocshared=4
 Will use up to    4 processors via shared memory.
 ----------------------------
 # nmr=giao hf/sto-3g pop=nbo
 ----------------------------
 1/38=1,172=1/1;
 2/12=2,17=6,18=5,40=1/2;
 3/6=3,11=9,25=1,30=1/1,2,3,8;
 4//1;
 5/5=2,38=5/2;
 8/6=1,10=90,11=11/1;
 10/13=100,45=16/2;
 6/7=2,8=2,9=2,10=2,28=1,40=1,64=1/1,7;
 99/9=1/99;
 -------------------
 Title Card Required
 -------------------
 Symbolic Z-matrix:
 Charge =  0 Multiplicity = 1
 C                     0.        0.        0. 
 C                     1.4073    0.        0. 
 C                     2.1282    1.1938    0. 
 C                     1.4543    2.4099    0.012 
 C                     0.0599    2.4335    0.0326 
 C                    -0.6759    1.2368    0.0069 
 C                    -2.1552    1.3492   -0.0504 
 O                    -0.4985    3.6877    0.0558 
 C                    -1.8288    3.6927    0.5914 
 C                    -2.7069    2.7483   -0.211 
 C                    -2.3566    5.133     0.5644 
 C                    -3.6567    5.2692   -0.2276 
 N                    -4.6818    4.2762    0.0983 
 C                    -4.1806    2.8819    0.1996 
 C                    -4.4977    2.4236    1.6335 
 C                    -4.8641    3.6822    2.3911 
 C                    -5.4376    4.5786    1.3173 
 O                    -2.8831    0.3613   -0.0235 
 C                    -0.7091   -1.3268   -0.0214 
 H                    -2.6139    2.9676   -1.2854 
 H                    -1.7577    3.3801    1.6436 
 H                    -4.7763    2.2643   -0.4857 
 H                     1.9559   -0.9408   -0.009 
 H                     3.2153    1.1736   -0.0086 
 H                     2.0143    3.3415    0.0151 
 H                    -1.6082    5.8174    0.1462 
 H                    -2.5277    5.4694    1.5942 
 H                    -3.4261    5.1784   -1.2973 
 H                    -4.055     6.2854   -0.1162 
 H                    -3.6829    1.8896    2.1306 
 H                    -5.3664    1.7532    1.6136 
 H                    -3.971     4.1296    2.8398 
 H                    -5.5799    3.4843    3.1946 
 H                    -5.4171    5.635     1.606 
 H                    -6.4882    4.3157    1.1431 
 H                    -1.3399   -1.4394    0.8658 
 H                     0.0013   -2.161    -0.0145 
 H                    -1.3102   -1.4264   -0.9306 
 
                          Input orientation:                          
 ---------------------------------------------------------------------
 Center     Atomic      Atomic             Coordinates (Angstroms)
 Number     Number       Type             X           Y           Z
 ---------------------------------------------------------------------
      1          6           0        0.000000    0.000000    0.000000
      2          6           0        1.407300    0.000000    0.000000
      3          6           0        2.128200    1.193800    0.000000
      4          6           0        1.454300    2.409900    0.012000
      5          6           0        0.059900    2.433500    0.032600
      6          6           0       -0.675900    1.236800    0.006900
      7          6           0       -2.155200    1.349200   -0.050400
      8          8           0       -0.498500    3.687700    0.055800
      9          6           0       -1.828800    3.692700    0.591400
     10          6           0       -2.706900    2.748300   -0.211000
     11          6           0       -2.356600    5.133000    0.564400
     12          6           0       -3.656700    5.269200   -0.227600
     13          7           0       -4.681800    4.276200    0.098300
     14          6           0       -4.180600    2.881900    0.199600
     15          6           0       -4.497700    2.423600    1.633500
     16          6           0       -4.864100    3.682200    2.391100
     17          6           0       -5.437600    4.578600    1.317300
     18          8           0       -2.883100    0.361300   -0.023500
     19          6           0       -0.709100   -1.326800   -0.021400
     20          1           0       -2.613900    2.967600   -1.285400
     21          1           0       -1.757700    3.380100    1.643600
     22          1           0       -4.776300    2.264300   -0.485700
     23          1           0        1.955900   -0.940800   -0.009000
     24          1           0        3.215300    1.173600   -0.008600
     25          1           0        2.014300    3.341500    0.015100
     26          1           0       -1.608200    5.817400    0.146200
     27          1           0       -2.527700    5.469400    1.594200
     28          1           0       -3.426100    5.178400   -1.297300
     29          1           0       -4.055000    6.285400   -0.116200
     30          1           0       -3.682900    1.889600    2.130600
     31          1           0       -5.366400    1.753200    1.613600
     32          1           0       -3.971000    4.129600    2.839800
     33          1           0       -5.579900    3.484300    3.194600
     34          1           0       -5.417100    5.635000    1.606000
     35          1           0       -6.488200    4.315700    1.143100
     36          1           0       -1.339900   -1.439400    0.865800
     37          1           0        0.001300   -2.161000   -0.014500
     38          1           0       -1.310200   -1.426400   -0.930600
 ---------------------------------------------------------------------
                    Distance matrix (angstroms):
                    1          2          3          4          5
     1  C    0.000000
     2  C    1.407300   0.000000
     3  C    2.440163   1.394581   0.000000
     4  C    2.814738   2.410388   1.390390   0.000000
     5  C    2.434455   2.781811   2.411594   1.394752   0.000000
     6  C    1.409455   2.422694   2.804438   2.431860   1.405046
     7  C    2.543181   3.809762   4.286514   3.762641   2.467643
     8  O    3.721659   4.151424   3.622458   2.334121   1.373086
     9  C    4.162967   4.945516   4.717214   3.572118   2.337740
    10  C    3.863286   4.952203   5.083226   4.180889   2.795286
    11  C    5.676249   6.390084   5.995771   4.716289   3.661910
    12  C    6.417766   7.311660   7.079954   5.861342   4.682095
    13  N    6.341514   7.441283   7.475758   6.414222   5.087591
    14  C    5.081595   6.290454   6.533795   5.657745   4.267410
    15  C    5.363904   6.588716   6.934211   6.168935   4.830600
    16  C    6.552513   7.655483   7.797548   6.870301   5.600674
    17  C    7.229547   8.339755   8.392466   7.342027   6.039405
    18  O    2.905745   4.305650   5.080033   4.796985   3.599779
    19  C    1.504553   2.498000   3.795280   4.317909   3.838507
    20  H    4.158290   5.160325   5.223613   4.306336   3.028464
    21  H    4.149218   4.913626   4.752005   3.730999   2.606730
    22  H    5.308107   6.603020   7.003856   6.252142   4.866836
    23  H    2.170422   1.089104   2.141561   3.388102   3.870717
    24  H    3.422801   2.155522   1.087322   2.151740   3.397881
    25  H    3.901699   3.396218   2.150771   1.086963   2.155099
    26  H    6.037369   6.554140   5.946405   4.583445   3.774419
    27  H    6.232582   6.923874   6.519174   5.265000   4.283802
    28  H    6.343262   7.201428   6.957749   5.761698   4.631987
    29  H    7.480828   8.328054   8.010609   6.737086   5.638411
    30  H    4.655513   5.832682   6.228361   5.581219   4.325041
    31  H    5.871598   7.180559   7.686720   7.036926   5.692723
    32  H    6.394287   7.351474   7.340547   6.355132   5.196661
    33  H    7.313077   8.436041   8.652553   7.795078   6.550555
    34  H    7.979814   8.994715   8.901407   7.756175   6.536262
    35  H    7.875829   9.070329   9.235545   8.245894   6.903152
    36  H    2.148677   3.220029   4.439715   4.832560   4.201549
    37  H    2.161049   2.578171   3.972228   4.796357   4.595115
    38  H    2.148780   3.207092   4.421997   4.821634   4.207583
                    6          7          8          9         10
     6  C    0.000000
     7  C    1.484670   0.000000
     8  O    2.457798   2.867842   0.000000
     9  C    2.775295   2.451619   1.434082   0.000000
    10  C    2.541077   1.512497   2.414681   1.518814   0.000000
    11  C    4.279712   3.838709   2.408340   1.534199   2.531946
    12  C    5.020001   4.201464   3.543400   2.548986   2.693944
    13  N    5.029268   3.869515   4.224706   2.953511   2.516024
    14  C    3.876391   2.552237   3.771983   2.518306   1.535654
    15  C    4.319777   3.078500   4.481148   3.133626   2.591250
    16  C    5.404203   4.329197   4.950972   3.528750   3.506652
    17  C    5.963100   4.803517   5.174920   3.786184   3.625248
    18  O    2.374691   1.227399   4.093598   3.547940   2.400827
    19  C    2.563971   3.041878   5.019514   5.179250   4.542421
    20  H    2.901991   2.086828   2.606200   2.159752   1.100489
    21  H    2.905652   2.674359   2.049710   1.099954   2.177084
    22  H    4.255783   2.810171   4.540800   3.447931   2.142926
    23  H    3.415928   4.706055   5.239398   6.012799   5.949115
    24  H    3.891744   5.373533   4.485215   5.669992   6.131321
    25  H    3.415700   4.621502   2.536863   3.901907   4.763689
    26  H    4.676589   4.505849   2.403170   2.182021   3.279346
    27  H    4.885037   4.451911   3.107858   2.156556   3.270359
    28  H    4.980035   4.222880   3.553014   2.885457   2.757296
    29  H    6.076334   5.289578   4.407530   3.489808   3.786481
    30  H    3.738756   2.717105   4.204564   3.009650   2.678252
    31  H    4.984872   3.639219   5.464932   4.161871   3.375252
    32  H    5.220278   4.402387   4.472604   3.136113   3.579570
    33  H    6.265932   5.178537   5.976124   4.570649   4.515965
    34  H    6.661851   5.634868   5.512506   4.204502   4.356571
    35  H    6.674834   5.385114   6.119895   4.733129   4.311445
    36  H    2.888019   3.046379   5.258442   5.162632   4.534867
    37  H    3.464694   4.119865   5.870437   6.162969   5.610186
    38  H    2.893765   3.031952   5.271230   5.365689   4.460573
                   11         12         13         14         15
    11  C    0.000000
    12  C    1.528422   0.000000
    13  N    2.521490   1.463930   0.000000
    14  C    2.920189   2.481164   1.485105   0.000000
    15  C    3.614987   3.502630   2.413060   1.538395   0.000000
    16  C    3.424793   3.291500   2.375500   2.431116   1.514028
    17  C    3.219748   2.456674   1.465824   2.389162   2.372218
    18  O    4.836522   4.972685   4.310058   2.843713   3.099300
    19  C    6.692267   7.227592   6.869518   5.460156   5.581907
    20  H    2.859532   2.739295   2.811276   2.160351   3.516336
    21  H    2.143831   3.267459   3.426559   2.864225   2.902171
    22  H    3.897063   3.217071   2.097076   1.098146   2.143363
    23  H    7.471110   8.373360   8.443202   7.232785   7.460962
    24  H    6.859391   8.002892   8.485384   7.593482   7.984320
    25  H    4.755625   5.994595   6.761534   6.214665   6.772585
    26  H    1.096995   2.153277   3.438693   3.903492   4.698846
    27  H    1.096781   2.152598   2.881248   3.372261   3.627581
    28  H    2.147514   1.098034   2.082894   2.843219   4.162552
    29  H    2.162361   1.097140   2.115602   3.420426   4.262738
    30  H    3.838189   4.121103   3.289970   2.227358   1.093693
    31  H    4.645725   4.321498   3.021645   2.163211   1.097484
    32  H    2.964885   3.287311   2.835939   2.927686   2.154764
    33  H    4.475023   4.312310   3.319753   3.360201   2.175609
    34  H    3.271635   2.568055   2.158741   3.329633   3.340530
    35  H    4.251234   3.287153   2.087163   2.875933   2.789736
    36  H    6.657399   7.181114   6.665241   5.214119   5.048151
    37  H    7.687474   8.284579   7.961262   6.554767   6.631400
    38  H    6.808503   7.129609   6.704175   5.298868   5.617585
                   16         17         18         19         20
    16  C    0.000000
    17  C    1.511781   0.000000
    18  O    4.558841   5.109680   0.000000
    19  C    6.940768   7.682746   2.752447   0.000000
    20  H    4.369291   4.164451   2.908206   4.864959   0.000000
    21  H    3.209321   3.883882   3.627520   5.101636   3.079330
    22  H    3.208446   3.007343   2.723829   5.445520   2.410420
    23  H    8.581667   9.321303   5.011147   2.692838   6.147183
    24  H    8.793653   9.392801   6.152279   4.653287   6.231230
    25  H    7.285179   7.665309   5.733028   5.404745   4.821964
    26  H    4.494390   4.191707   5.605640   7.202504   3.343990
    27  H    3.047605   3.055768   5.369911   7.218435   3.815564
    28  H    4.232110   3.352913   5.012172   7.164331   2.355302
    29  H    3.703761   2.622913   6.039611   8.315625   3.801525
    30  H    2.162524   3.312273   2.759625   4.880555   3.738168
    31  H    2.139592   2.841786   3.283940   5.818081   4.177945
    32  H    1.095046   2.161139   4.856140   6.971281   4.495469
    33  H    1.094142   2.177613   5.232784   7.563996   5.397642
    34  H    2.176148   1.095330   6.073577   8.560395   4.830440
    35  H    2.143951   1.096915   5.476767   8.160384   4.767094
    36  H    6.401352   7.294609   2.532754   1.094400   5.066793
    37  H    7.975087   8.762279   3.831689   1.095721   5.895506
    38  H    7.054197   7.625517   2.548081   1.094480   4.597037
                   21         22         23         24         25
    21  H    0.000000
    22  H    3.858870   0.000000
    23  H    5.932292   7.471441   0.000000
    24  H    5.685872   8.079785   2.461052   0.000000
    25  H    4.108709   6.893722   4.282766   2.478458   0.000000
    26  H    2.864435   4.802153   7.642000   6.697387   4.389735
    27  H    2.227221   4.433379   7.985210   7.348804   5.258448
    28  H    3.829665   3.312660   8.250470   7.861766   5.890208
    29  H    4.100640   4.101957   9.400020   8.888157   6.746865
    30  H    2.482973   2.860236   6.662216   7.257685   6.248315
    31  H    3.958588   2.239755   7.969099   8.752888   7.717035
    32  H    2.625136   3.897025   8.303780   8.276124   6.665122
    33  H    4.126218   3.959644   9.307677   9.641336   8.234166
    34  H    4.298511   4.018389  10.010519   9.850348   7.938313
    35  H    4.848039   3.129190  10.013039  10.264362   8.632147
    36  H    4.899705   5.229990   3.446183   5.323738   5.901809
    37  H    6.045425   6.529224   2.304209   4.631348   5.859228
    38  H    5.470759   5.082623   3.428201   5.300022   5.888932
                   26         27         28         29         30
    26  H    0.000000
    27  H    1.750225   0.000000
    28  H    2.407649   3.041805   0.000000
    29  H    2.504937   2.433921   1.736652   0.000000
    30  H    4.865166   3.799629   4.757378   4.950720   0.000000
    31  H    5.726696   4.676402   4.895927   5.025218   1.766371
    32  H    3.960678   2.330171   4.302615   3.659572   2.367185
    33  H    5.523631   3.977163   5.261748   4.597051   2.696993
    34  H    4.083137   2.894166   3.549889   2.290046   4.160610
    35  H    5.202241   4.149708   4.009521   3.374317   3.838076
    36  H    7.297325   7.047904   7.268185   8.246734   4.262817
    37  H    8.140711   8.197973   8.201185   9.370463   5.880658
    38  H    7.329457   7.443721   6.945134   8.226119   5.098677
                   31         32         33         34         35
    31  H    0.000000
    32  H    3.016287   0.000000
    33  H    2.354114   1.769422   0.000000
    34  H    3.882139   2.424809   2.678743   0.000000
    35  H    2.836585   3.041335   2.392674   1.761273   0.000000
    36  H    5.192745   6.467853   6.902444   8.198694   7.726776
    37  H    6.839874   7.968553   8.562566   9.631339   9.241282
    38  H    5.747658   7.222528   7.704712   8.553615   8.005225
                   36         37         38
    36  H    0.000000
    37  H    1.759105   0.000000
    38  H    1.796693   1.760372   0.000000
 Stoichiometry    C16H19NO2
 Framework group  C1[X(C16H19NO2)]
 Deg. of freedom   108
 Full point group                 C1      NOp   1
 Largest Abelian subgroup         C1      NOp   1
 Largest concise Abelian subgroup C1      NOp   1
                         Standard orientation:                         
 ---------------------------------------------------------------------
 Center     Atomic      Atomic             Coordinates (Angstroms)
 Number     Number       Type             X           Y           Z
 ---------------------------------------------------------------------
      1          6           0       -3.069741    0.856549    0.010167
      2          6           0       -4.202867    0.062755    0.267869
      3          6           0       -4.099051   -1.322093    0.395437
      4          6           0       -2.857567   -1.937247    0.279306
      5          6           0       -1.718166   -1.167967    0.044129
      6          6           0       -1.815557    0.225041   -0.111422
      7          6           0       -0.568751    0.961501   -0.439058
      8          8           0       -0.546138   -1.878348   -0.039983
      9          6           0        0.609346   -1.077471    0.242936
     10          6           0        0.652973    0.109867   -0.703173
     11          6           0        1.855768   -1.962724    0.114384
     12          6           0        2.860145   -1.421757   -0.902797
     13          7           0        3.165945    0.003367   -0.766430
     14          6           0        1.978612    0.873507   -0.569877
     15          6           0        2.189410    1.574115    0.783405
     16          6           0        3.321105    0.826713    1.456412
     17          6           0        4.133299    0.306182    0.292423
     18          8           0       -0.544818    2.184322   -0.542229
     19          6           0       -3.262547    2.341542   -0.135784
     20          1           0        0.540321   -0.231839   -1.743184
     21          1           0        0.533012   -0.754138    1.291520
     22          1           0        1.999990    1.645710   -1.350370
     23          1           0       -5.185208    0.523306    0.362980
     24          1           0       -4.987246   -1.919601    0.586126
     25          1           0       -2.774016   -3.016171    0.381433
     26          1           0        1.581832   -2.988313   -0.162243
     27          1           0        2.343037   -2.036863    1.094180
     28          1           0        2.459672   -1.586497   -1.911837
     29          1           0        3.780266   -2.018428   -0.869999
     30          1           0        1.302905    1.602779    1.423288
     31          1           0        2.501577    2.611417    0.607261
     32          1           0        2.926713    0.002100    2.059400
     33          1           0        3.906269    1.474555    2.115980
     34          1           0        4.766230   -0.541577    0.576063
     35          1           0        4.802023    1.096441   -0.070236
     36          1           0       -2.684195    2.880077    0.621316
     37          1           0       -4.311645    2.625099    0.004190
     38          1           0       -2.973978    2.669503   -1.139306
 ---------------------------------------------------------------------
 Rotational constants (GHZ):           0.8342560           0.2691595           0.2212612
 Standard basis: STO-3G (5D, 7F)
 There are   114 symmetry adapted cartesian basis functions of A   symmetry.
 There are   114 symmetry adapted basis functions of A   symmetry.
   114 basis functions,   342 primitive gaussians,   114 cartesian basis functions
    69 alpha electrons       69 beta electrons
       nuclear repulsion energy      1499.1642238613 Hartrees.
 NAtoms=   38 NActive=   38 NUniq=   38 SFac= 1.00D+00 NAtFMM=   60 NAOKFM=F Big=F
 Integral buffers will be    131072 words long.
 Raffenetti 1 integral format.
 Two-electron integral symmetry is turned on.
 One-electron integrals computed using PRISM.
 NBasis=   114 RedAO= T EigKep=  1.74D-01  NBF=   114
 NBsUse=   114 1.00D-06 EigRej= -1.00D+00 NBFU=   114
 ExpMin= 1.69D-01 ExpMax= 1.31D+02 ExpMxC= 1.31D+02 IAcc=3 IRadAn=         5 AccDes= 0.00D+00
 Harris functional with IExCor=  205 and IRadAn=       5 diagonalized for initial guess.
 HarFok:  IExCor=  205 AccDes= 0.00D+00 IRadAn=         5 IDoV= 1 UseB2=F ITyADJ=14
 ICtDFT=  3500011 ScaDFX=  1.000000  1.000000  1.000000  1.000000
 FoFCou: FMM=F IPFlag=           0 FMFlag=      100000 FMFlg1=           0
         NFxFlg=           0 DoJE=T BraDBF=F KetDBF=T FulRan=T
         wScrn=  0.000000 ICntrl=       500 IOpCl=  0 I1Cent=   200000004 NGrid=           0
         NMat0=    1 NMatS0=      1 NMatT0=    0 NMatD0=    1 NMtDS0=    0 NMtDT0=    0
 Petite list used in FoFCou.
 Requested convergence on RMS density matrix=1.00D-08 within 128 cycles.
 Requested convergence on MAX density matrix=1.00D-06.
 Requested convergence on             energy=1.00D-06.
 No special actions if energy rises.
 Integral accuracy reduced to 1.0D-05 until final iterations.
 Initial convergence to 1.0D-05 achieved.  Increase integral accuracy.
 SCF Done:  E(RHF) =  -811.049557155     A.U. after   17 cycles
            NFock= 17  Conv=0.74D-08     -V/T= 2.0093
 Range of M.O.s used for correlation:     1   114
 NBasis=   114 NAE=    69 NBE=    69 NFC=     0 NFV=     0
 NROrb=    114 NOA=    69 NOB=    69 NVA=    45 NVB=    45
          Differentiating once with respect to magnetic field using GIAOs.
          Electric field/nuclear overlap derivatives assumed to be zero.
 FoFCou: FMM=F IPFlag=           0 FMFlag=      100000 FMFlg1=           0
         NFxFlg=           0 DoJE=F BraDBF=F KetDBF=T FulRan=T
         wScrn=  0.000000 ICntrl=      6100 IOpCl=  0 I1Cent=           7 NGrid=          38
         NMat0=    1 NMatS0=      1 NMatT0=    0 NMatD0=    1 NMtDS0=    0 NMtDT0=    0
 Symmetry not used in FoFCou.
 FoFJK:  IHMeth= 1 ICntrl=    6127 DoSepK=F KAlg= 0 I1Cent=           0 FoldK=F
 IRaf=         1 NMat=       1 IRICut=       1 DoRegI=T DoRafI=F ISym2E= 0 IDoP0=0 IntGTp=1.
          There are     3 degrees of freedom in the 1st order CPHF.  IDoFFX=0 NUNeed=     3.
      3 vectors produced by pass  0 Test12= 1.04D-13 3.33D-08 XBig12= 2.66D+01 1.59D+00.
 AX will form     3 AO Fock derivatives at one time.
      3 vectors produced by pass  1 Test12= 1.04D-13 3.33D-08 XBig12= 1.63D-01 2.32D-01.
      3 vectors produced by pass  2 Test12= 1.04D-13 3.33D-08 XBig12= 4.09D-03 2.44D-02.
      3 vectors produced by pass  3 Test12= 1.04D-13 3.33D-08 XBig12= 1.23D-04 2.40D-03.
      3 vectors produced by pass  4 Test12= 1.04D-13 3.33D-08 XBig12= 1.69D-06 1.57D-04.
      3 vectors produced by pass  5 Test12= 1.04D-13 3.33D-08 XBig12= 1.96D-08 1.91D-05.
      3 vectors produced by pass  6 Test12= 1.04D-13 3.33D-08 XBig12= 3.65D-10 2.92D-06.
      3 vectors produced by pass  7 Test12= 1.04D-13 3.33D-08 XBig12= 5.70D-12 3.16D-07.
      1 vectors produced by pass  8 Test12= 1.04D-13 3.33D-08 XBig12= 1.05D-13 5.94D-08.
 InvSVY:  IOpt=1 It=  1 EMax= 8.88D-16
 Solved reduced A of dimension    25 with     3 vectors.
 Calculating GIAO nuclear magnetic shielding tensors.
 SCF GIAO Magnetic shielding tensor (ppm):
      1  C    Isotropic =   113.8769   Anisotropy =   169.4193
   XX=    81.9321   YX=    15.1646   ZX=    20.5634
   XY=    19.3033   YY=    38.5035   ZY=    18.9018
   XZ=    20.3814   YZ=    21.3718   ZZ=   221.1953
   Eigenvalues:    31.6470    83.1607   226.8231
      2  C    Isotropic =   123.7197   Anisotropy =   143.0578
   XX=    53.1238   YX=    36.4603   ZX=    20.9560
   XY=    31.2103   YY=   102.9626   ZY=     7.7435
   XZ=    20.1613   YZ=     9.2365   ZZ=   215.0727
   Eigenvalues:    34.8303   117.2373   219.0916
      3  C    Isotropic =   117.2379   Anisotropy =   168.4598
   XX=    50.9747   YX=   -34.5278   ZX=    30.3360
   XY=   -36.7040   YY=    77.6050   ZY=    20.9571
   XZ=    28.7882   YZ=    20.4759   ZZ=   223.1340
   Eigenvalues:    19.8561   102.3131   229.5445
      4  C    Isotropic =   131.3004   Anisotropy =   145.6761
   XX=   118.3542   YX=     7.1518   ZX=    14.4167
   XY=     2.8426   YY=    51.3752   ZY=    17.7822
   XZ=    13.3271   YZ=    22.9877   ZZ=   224.1718
   Eigenvalues:    48.8378   116.6457   228.4178
      5  C    Isotropic =   103.8851   Anisotropy =   132.9002
   XX=    56.5510   YX=    19.4203   ZX=    15.1216
   XY=     9.5050   YY=    67.4200   ZY=    14.2200
   XZ=    21.2634   YZ=    16.1023   ZZ=   187.6842
   Eigenvalues:    46.2150    72.9550   192.4852
      6  C    Isotropic =   130.4734   Anisotropy =   148.2748
   XX=    81.9948   YX=   -17.2079   ZX=    27.8342
   XY=   -14.0304   YY=    87.4303   ZY=    19.9291
   XZ=    31.2062   YZ=    14.4864   ZZ=   221.9950
   Eigenvalues:    61.7462   100.3507   229.3232
      7  C    Isotropic =    90.7445   Anisotropy =   135.7670
   XX=   -32.0871   YX=     4.8957   ZX=    51.9647
   XY=     5.8922   YY=   134.8824   ZY=    -0.5824
   XZ=    48.3882   YZ=    -0.2024   ZZ=   169.4382
   Eigenvalues:   -44.0485   135.0261   181.2558
      8  O    Isotropic =   334.1062   Anisotropy =    78.0038
   XX=   303.3224   YX=   -40.7812   ZX=     0.2028
   XY=   -53.6770   YY=   322.7322   ZY=     4.7169
   XZ=    23.3249   YZ=    43.2177   ZZ=   376.2638
   Eigenvalues:   259.7071   356.5026   386.1087
      9  C    Isotropic =   187.4923   Anisotropy =    50.6069
   XX=   210.1701   YX=    16.5257   ZX=     8.0906
   XY=    19.6216   YY=   186.1584   ZY=     1.0862
   XZ=     7.9569   YZ=     5.7214   ZZ=   166.1483
   Eigenvalues:   164.7284   176.5183   221.2302
     10  C    Isotropic =   210.4445   Anisotropy =    11.8971
   XX=   217.0227   YX=    -0.0208   ZX=     5.4880
   XY=    -1.6722   YY=   205.7117   ZY=     5.0916
   XZ=     0.9368   YZ=     9.1451   ZZ=   208.5990
   Eigenvalues:   199.4741   213.4834   218.3759
     11  C    Isotropic =   218.5611   Anisotropy =    17.2983
   XX=   227.6600   YX=    -3.8849   ZX=    -5.2907
   XY=    -3.6862   YY=   220.7219   ZY=    -0.8392
   XZ=    -3.9000   YZ=     0.5614   ZZ=   207.3014
   Eigenvalues:   206.2495   219.3405   230.0933
     12  C    Isotropic =   202.7695   Anisotropy =    38.0379
   XX=   195.3654   YX=     5.2041   ZX=    -0.0575
   XY=     6.6088   YY=   225.5139   ZY=     9.9834
   XZ=    -2.3592   YZ=     6.3251   ZZ=   187.4292
   Eigenvalues:   185.1634   195.0170   228.1281
     13  N    Isotropic =   297.9524   Anisotropy =    65.4515
   XX=   323.8647   YX=   -29.6516   ZX=    27.3835
   XY=   -23.7471   YY=   290.0872   ZY=    23.1115
   XZ=    28.4028   YZ=    32.6162   ZZ=   279.9052
   Eigenvalues:   239.1378   313.1326   341.5867
     14  C    Isotropic =   194.4450   Anisotropy =    41.1220
   XX=   207.0732   YX=   -19.2654   ZX=     1.5638
   XY=   -21.9396   YY=   189.2643   ZY=    12.3832
   XZ=     0.3904   YZ=    13.6057   ZZ=   186.9974
   Eigenvalues:   168.4295   193.0458   221.8596
     15  C    Isotropic =   212.8158   Anisotropy =    27.4252
   XX=   214.0594   YX=    -8.9501   ZX=    11.4679
   XY=   -12.1934   YY=   205.2980   ZY=    14.9438
   XZ=    14.9255   YZ=    13.1653   ZZ=   219.0901
   Eigenvalues:   186.8977   220.4505   231.0993
     16  C    Isotropic =   215.5806   Anisotropy =    17.1998
   XX=   220.0081   YX=   -11.7475   ZX=     0.0647
   XY=   -12.9956   YY=   205.2208   ZY=     2.8050
   XZ=     6.4793   YZ=     9.8487   ZZ=   221.5129
   Eigenvalues:   196.2004   223.4942   227.0471
     17  C    Isotropic =   196.7535   Anisotropy =    50.5374
   XX=   208.6471   YX=    -6.1537   ZX=    20.4635
   XY=     3.2682   YY=   177.1772   ZY=    17.8336
   XZ=    21.5597   YZ=    19.9349   ZZ=   204.4362
   Eigenvalues:   164.3933   195.4221   230.4451
     18  O    Isotropic =  -342.5298   Anisotropy =  1257.9113
   XX=  -343.1867   YX=   -51.3993   ZX=   206.2417
   XY=    -7.5155   YY= -1130.2333   ZY=   122.3551
   XZ=   181.7012   YZ=    78.9112   ZZ=   445.8305
   Eigenvalues: -1138.8844  -384.7827   496.0777
     19  C    Isotropic =   218.1186   Anisotropy =    23.3488
   XX=   215.3604   YX=    -2.1002   ZX=    -1.2009
   XY=    -2.3981   YY=   233.1132   ZY=    -2.8931
   XZ=    -1.2008   YZ=    -3.1229   ZZ=   205.8822
   Eigenvalues:   205.3442   215.3272   233.6845
     20  H    Isotropic =    31.2040   Anisotropy =    10.3541
   XX=    30.1112   YX=     0.6412   ZX=     4.1222
   XY=     0.7763   YY=    26.3292   ZY=     1.1718
   XZ=     0.1168   YZ=     2.6353   ZZ=    37.1714
   Eigenvalues:    25.9732    29.5320    38.1067
     21  H    Isotropic =    31.4188   Anisotropy =     5.5559
   XX=    32.0409   YX=     0.6468   ZX=    -0.6720
   XY=     1.8012   YY=    27.4547   ZY=     2.7666
   XZ=     1.5869   YZ=    -0.2240   ZZ=    34.7609
   Eigenvalues:    26.9843    32.1494    35.1227
     22  H    Isotropic =    30.2788   Anisotropy =    13.9262
   XX=    26.3930   YX=    -1.0406   ZX=     1.5607
   XY=     0.7735   YY=    33.5129   ZY=    -7.5585
   XZ=    -0.0987   YZ=    -6.8446   ZZ=    30.9305
   Eigenvalues:    24.7648    26.5086    39.5629
     23  H    Isotropic =    25.8879   Anisotropy =     5.9793
   XX=    27.8311   YX=     1.3966   ZX=    -1.0272
   XY=     1.3829   YY=    28.5460   ZY=    -1.0405
   XZ=    -1.1936   YZ=    -0.9452   ZZ=    21.2866
   Eigenvalues:    21.0244    26.7652    29.8741
     24  H    Isotropic =    25.2906   Anisotropy =     3.7199
   XX=    27.2395   YX=    -0.4131   ZX=    -0.6533
   XY=    -0.7550   YY=    27.1187   ZY=    -0.4856
   XZ=    -0.6769   YZ=    -0.5238   ZZ=    21.5135
   Eigenvalues:    21.3806    26.7206    27.7705
     25  H    Isotropic =    25.7094   Anisotropy =     7.1740
   XX=    29.4497   YX=     1.8306   ZX=    -1.1931
   XY=     1.3140   YY=    27.3821   ZY=    -0.8334
   XZ=    -1.2674   YZ=    -0.5362   ZZ=    20.2964
   Eigenvalues:    20.1020    26.5342    30.4920
     26  H    Isotropic =    31.5039   Anisotropy =    14.6439
   XX=    29.5749   YX=     1.5255   ZX=    -0.7405
   XY=     1.7687   YY=    40.8792   ZY=     1.4726
   XZ=    -0.5818   YZ=     1.9788   ZZ=    24.0576
   Eigenvalues:    23.7625    29.4827    41.2665
     27  H    Isotropic =    31.9955   Anisotropy =    11.2419
   XX=    30.9870   YX=    -1.5431   ZX=     4.3278
   XY=    -0.7380   YY=    30.0654   ZY=    -3.4973
   XZ=     4.8153   YZ=    -4.0973   ZZ=    34.9342
   Eigenvalues:    27.1609    29.3356    39.4901
     28  H    Isotropic =    31.4006   Anisotropy =    12.9252
   XX=    27.8190   YX=     0.4403   ZX=     1.1774
   XY=     0.5053   YY=    29.0878   ZY=     5.8915
   XZ=    -0.1164   YZ=     4.9215   ZZ=    37.2950
   Eigenvalues:    26.3789    27.8055    40.0174
     29  H    Isotropic =    31.7337   Anisotropy =    14.6931
   XX=    35.6881   YX=    -5.5639   ZX=    -2.6197
   XY=    -6.4631   YY=    33.7524   ZY=     2.7386
   XZ=    -2.0030   YZ=     2.2080   ZZ=    25.7605
   Eigenvalues:    25.0043    28.6678    41.5291
     30  H    Isotropic =    33.0518   Anisotropy =     9.8960
   XX=    37.0257   YX=    -2.0285   ZX=    -4.3114
   XY=    -1.1003   YY=    29.7370   ZY=     4.3359
   XZ=    -1.4529   YZ=     4.3474   ZZ=    32.3928
   Eigenvalues:    26.5025    33.0039    39.6492
     31  H    Isotropic =    31.7343   Anisotropy =    15.6004
   XX=    27.1730   YX=     1.5659   ZX=     0.9769
   XY=     1.7125   YY=    41.9131   ZY=     0.0537
   XZ=     2.5470   YZ=     1.1880   ZZ=    26.1167
   Eigenvalues:    24.7914    28.2768    42.1345
     32  H    Isotropic =    32.5964   Anisotropy =     9.3312
   XX=    29.4945   YX=     1.9574   ZX=    -0.2796
   XY=     2.3033   YY=    32.4639   ZY=    -4.2912
   XZ=     0.8770   YZ=    -4.2032   ZZ=    35.8307
   Eigenvalues:    27.5643    31.4077    38.8172
     33  H    Isotropic =    32.3447   Anisotropy =    16.5492
   XX=    31.7991   YX=     3.4120   ZX=     5.9858
   XY=     3.5215   YY=    30.5356   ZY=     5.7181
   XZ=     6.7171   YZ=     6.1386   ZZ=    34.6993
   Eigenvalues:    25.9511    27.7054    43.3775
     34  H    Isotropic =    31.8670   Anisotropy =    13.4278
   XX=    37.1710   YX=    -5.6571   ZX=     2.9516
   XY=    -4.7793   YY=    31.1201   ZY=     0.3778
   XZ=     3.7148   YZ=    -0.5117   ZZ=    27.3098
   Eigenvalues:    25.6673    29.1148    40.8189
     35  H    Isotropic =    31.2974   Anisotropy =    15.2192
   XX=    37.0993   YX=     6.4878   ZX=    -3.0249
   XY=     6.8404   YY=    29.9664   ZY=    -1.3234
   XZ=    -1.4811   YZ=     0.0222   ZZ=    26.8264
   Eigenvalues:    25.5811    26.8676    41.4435
     36  H    Isotropic =    30.8609   Anisotropy =    10.6818
   XX=    31.0410   YX=     2.5735   ZX=     2.9530
   XY=     1.8098   YY=    33.6851   ZY=     3.4740
   XZ=     1.9516   YZ=     6.5322   ZZ=    27.8567
   Eigenvalues:    24.7840    29.8166    37.9821
     37  H    Isotropic =    30.9816   Anisotropy =    12.2673
   XX=    37.4654   YX=    -3.1217   ZX=    -1.6894
   XY=    -3.8076   YY=    31.3993   ZY=    -0.2822
   XZ=    -1.5938   YZ=    -0.3925   ZZ=    24.0800
   Eigenvalues:    23.7984    29.9866    39.1598
     38  H    Isotropic =    31.0626   Anisotropy =    10.6139
   XX=    29.3996   YX=    -0.4338   ZX=    -2.6908
   XY=    -0.0267   YY=    31.1291   ZY=    -4.3219
   XZ=    -1.2491   YZ=    -7.6586   ZZ=    32.6593
   Eigenvalues:    25.3055    29.7439    38.1386
 End of Minotr F.D. properties file   721 does not exist.
 End of Minotr F.D. properties file   722 does not exist.
 End of Minotr F.D. properties file   788 does not exist.

 **********************************************************************

            Population analysis using the SCF Density.

 **********************************************************************

 Orbital symmetries:
       Occupied  (A) (A) (A) (A) (A) (A) (A) (A) (A) (A) (A) (A)
                 (A) (A) (A) (A) (A) (A) (A) (A) (A) (A) (A) (A)
                 (A) (A) (A) (A) (A) (A) (A) (A) (A) (A) (A) (A)
                 (A) (A) (A) (A) (A) (A) (A) (A) (A) (A) (A) (A)
                 (A) (A) (A) (A) (A) (A) (A) (A) (A) (A) (A) (A)
                 (A) (A) (A) (A) (A) (A) (A) (A) (A)
       Virtual   (A) (A) (A) (A) (A) (A) (A) (A) (A) (A) (A) (A)
                 (A) (A) (A) (A) (A) (A) (A) (A) (A) (A) (A) (A)
                 (A) (A) (A) (A) (A) (A) (A) (A) (A) (A) (A) (A)
                 (A) (A) (A) (A) (A) (A) (A) (A) (A)
 The electronic state is 1-A.
 Alpha  occ. eigenvalues --  -20.29960 -20.26481 -15.30847 -11.11735 -11.11435
 Alpha  occ. eigenvalues --  -11.09786 -11.07918 -11.07583 -11.06953 -11.06521
 Alpha  occ. eigenvalues --  -11.05346 -11.05162 -11.04415 -11.04361 -11.04265
 Alpha  occ. eigenvalues --  -11.04078 -11.02996 -11.02349 -11.02011  -1.34520
 Alpha  occ. eigenvalues --   -1.31733  -1.19453  -1.09866  -1.04984  -1.02854
 Alpha  occ. eigenvalues --   -0.99258  -0.98291  -0.95609  -0.91858  -0.88269
 Alpha  occ. eigenvalues --   -0.84605  -0.80503  -0.78031  -0.75659  -0.74540
 Alpha  occ. eigenvalues --   -0.71664  -0.68366  -0.65779  -0.64854  -0.62181
 Alpha  occ. eigenvalues --   -0.61281  -0.60383  -0.58069  -0.57243  -0.55762
 Alpha  occ. eigenvalues --   -0.55114  -0.54689  -0.53830  -0.52704  -0.51950
 Alpha  occ. eigenvalues --   -0.50739  -0.50239  -0.49391  -0.48035  -0.47169
 Alpha  occ. eigenvalues --   -0.46427  -0.45535  -0.44935  -0.44042  -0.43677
 Alpha  occ. eigenvalues --   -0.42806  -0.41791  -0.40006  -0.39393  -0.36934
 Alpha  occ. eigenvalues --   -0.31725  -0.27477  -0.27070  -0.24665
 Alpha virt. eigenvalues --    0.21160   0.26749   0.34598   0.48823   0.50966
 Alpha virt. eigenvalues --    0.52003   0.54320   0.55819   0.57660   0.58795
 Alpha virt. eigenvalues --    0.60364   0.61059   0.61741   0.63603   0.64728
 Alpha virt. eigenvalues --    0.65944   0.66444   0.67925   0.68582   0.69567
 Alpha virt. eigenvalues --    0.70319   0.70846   0.72188   0.73399   0.73616
 Alpha virt. eigenvalues --    0.73766   0.74791   0.74965   0.75236   0.76255
 Alpha virt. eigenvalues --    0.78602   0.79347   0.79954   0.80236   0.82051
 Alpha virt. eigenvalues --    0.84178   0.85480   0.86097   0.86604   0.86984
 Alpha virt. eigenvalues --    0.90063   0.93367   1.00853   1.11873   1.13307
          Condensed to atoms (all electrons):
               1          2          3          4          5          6
     1  C    4.757765   0.505177  -0.028649  -0.009896  -0.027686   0.497308
     2  C    0.505177   4.807291   0.504261  -0.031420  -0.011323  -0.031287
     3  C   -0.028649   0.504261   4.758993   0.508651  -0.029310  -0.009561
     4  C   -0.009896  -0.031420   0.508651   4.806400   0.499389  -0.031791
     5  C   -0.027686  -0.011323  -0.029310   0.499389   4.757485   0.488581
     6  C    0.497308  -0.031287  -0.009561  -0.031791   0.488581   4.875015
     7  C   -0.023312   0.000764   0.000019   0.000797  -0.029744   0.389023
     8  O    0.000239   0.000008   0.000349  -0.026971   0.292741  -0.016535
     9  C    0.000028   0.000000  -0.000020   0.001686  -0.040313  -0.007438
    10  C    0.000624  -0.000007  -0.000000  -0.000033  -0.004783  -0.035575
    11  C    0.000000   0.000000   0.000000  -0.000014   0.001578  -0.000004
    12  C   -0.000000  -0.000000  -0.000000   0.000000  -0.000016  -0.000001
    13  N    0.000000  -0.000000  -0.000000   0.000000  -0.000000  -0.000002
    14  C   -0.000004   0.000000  -0.000000   0.000000   0.000017   0.000569
    15  C   -0.000000   0.000000  -0.000000   0.000000   0.000001   0.000010
    16  C    0.000000  -0.000000   0.000000   0.000000  -0.000000   0.000000
    17  C   -0.000000   0.000000   0.000000   0.000000   0.000000   0.000000
    18  O   -0.000988  -0.000004  -0.000000  -0.000002   0.000320  -0.026930
    19  C    0.381512  -0.030139   0.000876   0.000011   0.000709  -0.024059
    20  H   -0.000014   0.000000   0.000000  -0.000009   0.000061  -0.000243
    21  H   -0.000015  -0.000001   0.000000   0.000095  -0.003337   0.000757
    22  H   -0.000000  -0.000000   0.000000  -0.000000  -0.000001   0.000002
    23  H   -0.025063   0.394180  -0.026825   0.001418   0.000049   0.001263
    24  H    0.001319  -0.024809   0.393582  -0.025146   0.001372   0.000010
    25  H    0.000035   0.001379  -0.024625   0.393481  -0.025288   0.001226
    26  H    0.000000   0.000000   0.000000  -0.000006   0.000103   0.000001
    27  H   -0.000000  -0.000000  -0.000000   0.000001  -0.000040  -0.000000
    28  H    0.000000  -0.000000  -0.000000   0.000000  -0.000003  -0.000000
    29  H    0.000000   0.000000   0.000000  -0.000000   0.000000   0.000000
    30  H    0.000001  -0.000000   0.000000  -0.000000   0.000000  -0.000042
    31  H   -0.000000   0.000000   0.000000   0.000000  -0.000000   0.000001
    32  H    0.000000  -0.000000  -0.000000   0.000000  -0.000000  -0.000000
    33  H   -0.000000   0.000000   0.000000  -0.000000   0.000000   0.000000
    34  H    0.000000  -0.000000  -0.000000  -0.000000  -0.000000  -0.000000
    35  H    0.000000  -0.000000  -0.000000   0.000000  -0.000000  -0.000000
    36  H   -0.021158   0.000748  -0.000023   0.000002   0.000001  -0.001896
    37  H   -0.020521  -0.005639   0.000061  -0.000000  -0.000016   0.001133
    38  H   -0.021123   0.000692  -0.000024   0.000003  -0.000001  -0.001805
               7          8          9         10         11         12
     1  C   -0.023312   0.000239   0.000028   0.000624   0.000000  -0.000000
     2  C    0.000764   0.000008   0.000000  -0.000007   0.000000  -0.000000
     3  C    0.000019   0.000349  -0.000020  -0.000000   0.000000  -0.000000
     4  C    0.000797  -0.026971   0.001686  -0.000033  -0.000014   0.000000
     5  C   -0.029744   0.292741  -0.040313  -0.004783   0.001578  -0.000016
     6  C    0.389023  -0.016535  -0.007438  -0.035575  -0.000004  -0.000001
     7  C    4.768933  -0.001544  -0.025604   0.357500   0.000749   0.000049
     8  O   -0.001544   7.797602   0.261361  -0.018028  -0.018719   0.000242
     9  C   -0.025604   0.261361   4.744253   0.358382   0.358600  -0.021171
    10  C    0.357500  -0.018028   0.358382   4.828575  -0.023271  -0.010719
    11  C    0.000749  -0.018719   0.358600  -0.023271   4.780006   0.358760
    12  C    0.000049   0.000242  -0.021171  -0.010719   0.358760   4.700716
    13  N    0.000353  -0.000000  -0.002652  -0.016849  -0.021086   0.331587
    14  C   -0.018752   0.000247  -0.021143   0.359154  -0.004557  -0.030801
    15  C   -0.002575   0.000001  -0.001583  -0.020170   0.000192   0.000933
    16  C    0.000024   0.000000  -0.000099   0.000603  -0.000310   0.000747
    17  C   -0.000009   0.000000   0.000085   0.000943  -0.000383  -0.034988
    18  O    0.432531  -0.000000   0.000282  -0.025725  -0.000001  -0.000000
    19  C   -0.002574  -0.000001  -0.000000   0.000007  -0.000000   0.000000
    20  H   -0.024926  -0.000977  -0.021983   0.378230  -0.001547  -0.000631
    21  H   -0.003035  -0.018968   0.378093  -0.025573  -0.025510   0.001079
    22  H   -0.001342  -0.000005   0.001233  -0.025930  -0.000050   0.001497
    23  H   -0.000014   0.000000  -0.000000   0.000000   0.000000   0.000000
    24  H    0.000001  -0.000005   0.000000  -0.000000  -0.000000   0.000000
    25  H   -0.000018  -0.001098   0.000033   0.000000  -0.000003   0.000000
    26  H   -0.000018  -0.002088  -0.019940   0.000857   0.379706  -0.019584
    27  H   -0.000015   0.000581  -0.022758   0.001092   0.382625  -0.023346
    28  H    0.000011   0.000032  -0.001207  -0.000972  -0.026820   0.380828
    29  H    0.000000  -0.000005   0.001169   0.000101  -0.022616   0.383251
    30  H   -0.000144  -0.000002  -0.000267  -0.004044   0.000021  -0.000037
    31  H    0.000030   0.000000   0.000008   0.001109  -0.000005  -0.000017
    32  H    0.000004   0.000000  -0.000217   0.000003  -0.000706   0.000018
    33  H   -0.000001  -0.000000   0.000001  -0.000012   0.000006  -0.000021
    34  H    0.000000  -0.000000   0.000002  -0.000025   0.000122  -0.005646
    35  H    0.000000   0.000000  -0.000003  -0.000023  -0.000039   0.001772
    36  H   -0.000052  -0.000000  -0.000000  -0.000003  -0.000000   0.000000
    37  H    0.000014   0.000000   0.000000   0.000000   0.000000  -0.000000
    38  H   -0.000081  -0.000000  -0.000000  -0.000002   0.000000  -0.000000
              13         14         15         16         17         18
     1  C    0.000000  -0.000004  -0.000000   0.000000  -0.000000  -0.000988
     2  C   -0.000000   0.000000   0.000000  -0.000000   0.000000  -0.000004
     3  C   -0.000000  -0.000000  -0.000000   0.000000   0.000000  -0.000000
     4  C    0.000000   0.000000   0.000000   0.000000   0.000000  -0.000002
     5  C   -0.000000   0.000017   0.000001  -0.000000   0.000000   0.000320
     6  C   -0.000002   0.000569   0.000010   0.000000   0.000000  -0.026930
     7  C    0.000353  -0.018752  -0.002575   0.000024  -0.000009   0.432531
     8  O   -0.000000   0.000247   0.000001   0.000000   0.000000  -0.000000
     9  C   -0.002652  -0.021143  -0.001583  -0.000099   0.000085   0.000282
    10  C   -0.016849   0.359154  -0.020170   0.000603   0.000943  -0.025725
    11  C   -0.021086  -0.004557   0.000192  -0.000310  -0.000383  -0.000001
    12  C    0.331587  -0.030801   0.000933   0.000747  -0.034988  -0.000000
    13  N    6.507270   0.328296  -0.028794  -0.032582   0.332928  -0.000000
    14  C    0.328296   4.729811   0.359846  -0.033955  -0.043937  -0.001281
    15  C   -0.028794   0.359846   4.774838   0.364845  -0.038235  -0.000159
    16  C   -0.032582  -0.033955   0.364845   4.768956   0.364093   0.000002
    17  C    0.332928  -0.043937  -0.038235   0.364093   4.714312  -0.000000
    18  O   -0.000000  -0.001281  -0.000159   0.000002  -0.000000   7.854429
    19  C    0.000000  -0.000000  -0.000000   0.000000  -0.000000  -0.001592
    20  H   -0.000807  -0.020810   0.001124  -0.000022  -0.000004  -0.000208
    21  H    0.000046  -0.001064  -0.000172  -0.000206  -0.000016   0.000011
    22  H   -0.027160   0.383851  -0.026173   0.001156   0.001509   0.000201
    23  H    0.000000  -0.000000  -0.000000   0.000000  -0.000000   0.000000
    24  H   -0.000000   0.000000   0.000000   0.000000   0.000000  -0.000000
    25  H   -0.000000  -0.000000  -0.000000  -0.000000  -0.000000   0.000000
    26  H    0.000843   0.000025  -0.000001   0.000008  -0.000015   0.000000
    27  H   -0.000665   0.000072  -0.000028  -0.000658   0.000217   0.000000
    28  H   -0.025176  -0.000642  -0.000035  -0.000049   0.001849   0.000000
    29  H   -0.018005   0.001499  -0.000032   0.000030  -0.004861   0.000000
    30  H    0.000804  -0.018228   0.383193  -0.020967   0.001635  -0.000130
    31  H    0.000695  -0.021482   0.384632  -0.023039  -0.000181  -0.000016
    32  H   -0.000059   0.000202  -0.022709   0.383403  -0.022260   0.000000
    33  H    0.001069   0.001462  -0.019494   0.384068  -0.019247   0.000000
    34  H   -0.015096   0.001585   0.001607  -0.020401   0.382911   0.000000
    35  H   -0.026607   0.000788  -0.001210  -0.025834   0.381899  -0.000000
    36  H   -0.000000   0.000000  -0.000000   0.000000   0.000000  -0.000415
    37  H    0.000000  -0.000000   0.000000  -0.000000  -0.000000   0.000061
    38  H   -0.000000  -0.000000   0.000000  -0.000000   0.000000  -0.000246
              19         20         21         22         23         24
     1  C    0.381512  -0.000014  -0.000015  -0.000000  -0.025063   0.001319
     2  C   -0.030139   0.000000  -0.000001  -0.000000   0.394180  -0.024809
     3  C    0.000876   0.000000   0.000000   0.000000  -0.026825   0.393582
     4  C    0.000011  -0.000009   0.000095  -0.000000   0.001418  -0.025146
     5  C    0.000709   0.000061  -0.003337  -0.000001   0.000049   0.001372
     6  C   -0.024059  -0.000243   0.000757   0.000002   0.001263   0.000010
     7  C   -0.002574  -0.024926  -0.003035  -0.001342  -0.000014   0.000001
     8  O   -0.000001  -0.000977  -0.018968  -0.000005   0.000000  -0.000005
     9  C   -0.000000  -0.021983   0.378093   0.001233  -0.000000   0.000000
    10  C    0.000007   0.378230  -0.025573  -0.025930   0.000000  -0.000000
    11  C   -0.000000  -0.001547  -0.025510  -0.000050   0.000000  -0.000000
    12  C    0.000000  -0.000631   0.001079   0.001497   0.000000   0.000000
    13  N    0.000000  -0.000807   0.000046  -0.027160   0.000000  -0.000000
    14  C   -0.000000  -0.020810  -0.001064   0.383851  -0.000000   0.000000
    15  C   -0.000000   0.001124  -0.000172  -0.026173  -0.000000   0.000000
    16  C    0.000000  -0.000022  -0.000206   0.001156   0.000000   0.000000
    17  C   -0.000000  -0.000004  -0.000016   0.001509  -0.000000   0.000000
    18  O   -0.001592  -0.000208   0.000011   0.000201   0.000000  -0.000000
    19  C    4.713078   0.000000  -0.000000   0.000000  -0.004244  -0.000016
    20  H    0.000000   0.620510   0.001842  -0.003312  -0.000000  -0.000000
    21  H   -0.000000   0.001842   0.646865  -0.000013  -0.000000   0.000000
    22  H    0.000000  -0.003312  -0.000013   0.634971   0.000000  -0.000000
    23  H   -0.004244  -0.000000  -0.000000   0.000000   0.604976  -0.003751
    24  H   -0.000016  -0.000000   0.000000  -0.000000  -0.003751   0.593830
    25  H    0.000000  -0.000000   0.000001  -0.000000  -0.000032  -0.003713
    26  H   -0.000000   0.000043   0.001410   0.000003   0.000000  -0.000000
    27  H    0.000000  -0.000001  -0.007391   0.000002  -0.000000   0.000000
    28  H    0.000000  -0.000966  -0.000016   0.000173   0.000000   0.000000
    29  H   -0.000000   0.000001  -0.000034  -0.000030   0.000000  -0.000000
    30  H    0.000000   0.000048  -0.000297   0.001283   0.000000  -0.000000
    31  H   -0.000000  -0.000030   0.000008  -0.007201  -0.000000   0.000000
    32  H    0.000000  -0.000001  -0.000065  -0.000021   0.000000   0.000000
    33  H   -0.000000   0.000001   0.000004  -0.000031  -0.000000  -0.000000
    34  H    0.000000  -0.000000   0.000001  -0.000035   0.000000  -0.000000
    35  H    0.000000  -0.000001  -0.000000   0.000232   0.000000  -0.000000
    36  H    0.380812  -0.000000   0.000000   0.000000   0.000071   0.000000
    37  H    0.382816  -0.000000  -0.000000  -0.000000   0.000173  -0.000003
    38  H    0.380543   0.000000  -0.000000  -0.000000   0.000069   0.000000
              25         26         27         28         29         30
     1  C    0.000035   0.000000  -0.000000   0.000000   0.000000   0.000001
     2  C    0.001379   0.000000  -0.000000  -0.000000   0.000000  -0.000000
     3  C   -0.024625   0.000000  -0.000000  -0.000000   0.000000   0.000000
     4  C    0.393481  -0.000006   0.000001   0.000000  -0.000000  -0.000000
     5  C   -0.025288   0.000103  -0.000040  -0.000003   0.000000   0.000000
     6  C    0.001226   0.000001  -0.000000  -0.000000   0.000000  -0.000042
     7  C   -0.000018  -0.000018  -0.000015   0.000011   0.000000  -0.000144
     8  O   -0.001098  -0.002088   0.000581   0.000032  -0.000005  -0.000002
     9  C    0.000033  -0.019940  -0.022758  -0.001207   0.001169  -0.000267
    10  C    0.000000   0.000857   0.001092  -0.000972   0.000101  -0.004044
    11  C   -0.000003   0.379706   0.382625  -0.026820  -0.022616   0.000021
    12  C    0.000000  -0.019584  -0.023346   0.380828   0.383251  -0.000037
    13  N   -0.000000   0.000843  -0.000665  -0.025176  -0.018005   0.000804
    14  C   -0.000000   0.000025   0.000072  -0.000642   0.001499  -0.018228
    15  C   -0.000000  -0.000001  -0.000028  -0.000035  -0.000032   0.383193
    16  C   -0.000000   0.000008  -0.000658  -0.000049   0.000030  -0.020967
    17  C   -0.000000  -0.000015   0.000217   0.001849  -0.004861   0.001635
    18  O    0.000000   0.000000   0.000000   0.000000   0.000000  -0.000130
    19  C    0.000000  -0.000000   0.000000   0.000000  -0.000000   0.000000
    20  H   -0.000000   0.000043  -0.000001  -0.000966   0.000001   0.000048
    21  H    0.000001   0.001410  -0.007391  -0.000016  -0.000034  -0.000297
    22  H   -0.000000   0.000003   0.000002   0.000173  -0.000030   0.001283
    23  H   -0.000032   0.000000  -0.000000   0.000000   0.000000   0.000000
    24  H   -0.003713  -0.000000   0.000000   0.000000  -0.000000  -0.000000
    25  H    0.589251  -0.000001   0.000000   0.000000  -0.000000  -0.000000
    26  H   -0.000001   0.612599  -0.022502  -0.003199  -0.001032  -0.000001
    27  H    0.000000  -0.022502   0.639378   0.002030  -0.003345   0.000008
    28  H    0.000000  -0.003199   0.002030   0.639551  -0.023357   0.000001
    29  H   -0.000000  -0.001032  -0.003345  -0.023357   0.623058   0.000002
    30  H   -0.000000  -0.000001   0.000008   0.000001   0.000002   0.629779
    31  H   -0.000000   0.000000  -0.000000   0.000000   0.000001  -0.023036
    32  H    0.000000   0.000012  -0.000430  -0.000002   0.000027  -0.005050
    33  H   -0.000000  -0.000000   0.000013   0.000001  -0.000002   0.000420
    34  H    0.000000  -0.000012   0.000008   0.000068  -0.000500  -0.000042
    35  H   -0.000000   0.000001  -0.000001  -0.000033   0.000131  -0.000000
    36  H   -0.000000   0.000000   0.000000   0.000000  -0.000000   0.000000
    37  H    0.000000  -0.000000  -0.000000  -0.000000   0.000000   0.000000
    38  H   -0.000000  -0.000000   0.000000  -0.000000   0.000000   0.000000
              31         32         33         34         35         36
     1  C   -0.000000   0.000000  -0.000000   0.000000   0.000000  -0.021158
     2  C    0.000000  -0.000000   0.000000  -0.000000  -0.000000   0.000748
     3  C    0.000000  -0.000000   0.000000  -0.000000  -0.000000  -0.000023
     4  C    0.000000   0.000000  -0.000000  -0.000000   0.000000   0.000002
     5  C   -0.000000  -0.000000   0.000000  -0.000000  -0.000000   0.000001
     6  C    0.000001  -0.000000   0.000000  -0.000000  -0.000000  -0.001896
     7  C    0.000030   0.000004  -0.000001   0.000000   0.000000  -0.000052
     8  O    0.000000   0.000000  -0.000000  -0.000000   0.000000  -0.000000
     9  C    0.000008  -0.000217   0.000001   0.000002  -0.000003  -0.000000
    10  C    0.001109   0.000003  -0.000012  -0.000025  -0.000023  -0.000003
    11  C   -0.000005  -0.000706   0.000006   0.000122  -0.000039  -0.000000
    12  C   -0.000017   0.000018  -0.000021  -0.005646   0.001772   0.000000
    13  N    0.000695  -0.000059   0.001069  -0.015096  -0.026607  -0.000000
    14  C   -0.021482   0.000202   0.001462   0.001585   0.000788   0.000000
    15  C    0.384632  -0.022709  -0.019494   0.001607  -0.001210  -0.000000
    16  C   -0.023039   0.383403   0.384068  -0.020401  -0.025834   0.000000
    17  C   -0.000181  -0.022260  -0.019247   0.382911   0.381899   0.000000
    18  O   -0.000016   0.000000   0.000000   0.000000  -0.000000  -0.000415
    19  C   -0.000000   0.000000  -0.000000   0.000000   0.000000   0.380812
    20  H   -0.000030  -0.000001   0.000001  -0.000000  -0.000001  -0.000000
    21  H    0.000008  -0.000065   0.000004   0.000001  -0.000000   0.000000
    22  H   -0.007201  -0.000021  -0.000031  -0.000035   0.000232   0.000000
    23  H   -0.000000   0.000000  -0.000000   0.000000   0.000000   0.000071
    24  H    0.000000   0.000000  -0.000000  -0.000000  -0.000000   0.000000
    25  H   -0.000000   0.000000  -0.000000   0.000000  -0.000000  -0.000000
    26  H    0.000000   0.000012  -0.000000  -0.000012   0.000001   0.000000
    27  H   -0.000000  -0.000430   0.000013   0.000008  -0.000001   0.000000
    28  H    0.000000  -0.000002   0.000001   0.000068  -0.000033   0.000000
    29  H    0.000001   0.000027  -0.000002  -0.000500   0.000131  -0.000000
    30  H   -0.023036  -0.005050   0.000420  -0.000042  -0.000000   0.000000
    31  H    0.630008   0.001990  -0.005138  -0.000013   0.000177   0.000000
    32  H    0.001990   0.642938  -0.023485  -0.004129   0.001969  -0.000000
    33  H   -0.005138  -0.023485   0.625723   0.000284  -0.003988  -0.000000
    34  H   -0.000013  -0.004129   0.000284   0.623765  -0.024557  -0.000000
    35  H    0.000177   0.001969  -0.003988  -0.024557   0.638015  -0.000000
    36  H    0.000000  -0.000000  -0.000000  -0.000000  -0.000000   0.606414
    37  H    0.000000   0.000000  -0.000000   0.000000   0.000000  -0.022029
    38  H   -0.000000  -0.000000   0.000000  -0.000000  -0.000000  -0.018389
              37         38
     1  C   -0.020521  -0.021123
     2  C   -0.005639   0.000692
     3  C    0.000061  -0.000024
     4  C   -0.000000   0.000003
     5  C   -0.000016  -0.000001
     6  C    0.001133  -0.001805
     7  C    0.000014  -0.000081
     8  O    0.000000  -0.000000
     9  C    0.000000  -0.000000
    10  C    0.000000  -0.000002
    11  C    0.000000   0.000000
    12  C   -0.000000  -0.000000
    13  N    0.000000  -0.000000
    14  C   -0.000000  -0.000000
    15  C    0.000000   0.000000
    16  C   -0.000000  -0.000000
    17  C   -0.000000   0.000000
    18  O    0.000061  -0.000246
    19  C    0.382816   0.380543
    20  H   -0.000000   0.000000
    21  H   -0.000000  -0.000000
    22  H   -0.000000  -0.000000
    23  H    0.000173   0.000069
    24  H   -0.000003   0.000000
    25  H    0.000000  -0.000000
    26  H   -0.000000  -0.000000
    27  H   -0.000000   0.000000
    28  H   -0.000000  -0.000000
    29  H    0.000000   0.000000
    30  H    0.000000   0.000000
    31  H    0.000000  -0.000000
    32  H    0.000000  -0.000000
    33  H   -0.000000   0.000000
    34  H    0.000000  -0.000000
    35  H    0.000000  -0.000000
    36  H   -0.022029  -0.018389
    37  H    0.624468  -0.021878
    38  H   -0.021878   0.606611
 Mulliken charges:
               1
     1  C    0.034423
     2  C   -0.079871
     3  C   -0.047757
     4  C   -0.086646
     5  C    0.129450
     6  C   -0.067729
     7  C    0.182955
     8  O   -0.248455
     9  C    0.081180
    10  C   -0.075433
    11  C   -0.116726
    12  C   -0.014501
    13  N   -0.288351
    14  C    0.049234
    15  C   -0.109852
    16  C   -0.109812
    17  C   -0.018247
    18  O   -0.230139
    19  C   -0.177740
    20  H    0.074630
    21  H    0.055501
    22  H    0.065192
    23  H    0.057729
    24  H    0.067328
    25  H    0.069372
    26  H    0.072787
    27  H    0.055150
    28  H    0.057934
    29  H    0.064550
    30  H    0.055091
    31  H    0.061500
    32  H    0.048567
    33  H    0.058367
    34  H    0.060101
    35  H    0.057315
    36  H    0.075916
    37  H    0.061360
    38  H    0.075629
 Sum of Mulliken charges =  -0.00000
 Mulliken charges with hydrogens summed into heavy atoms:
               1
     1  C    0.034423
     2  C   -0.022141
     3  C    0.019571
     4  C   -0.017274
     5  C    0.129450
     6  C   -0.067729
     7  C    0.182955
     8  O   -0.248455
     9  C    0.136681
    10  C   -0.000803
    11  C    0.011211
    12  C    0.107983
    13  N   -0.288351
    14  C    0.114426
    15  C    0.006738
    16  C   -0.002878
    17  C    0.099170
    18  O   -0.230139
    19  C    0.035164
 Electronic spatial extent (au):  <R**2>=           5027.4997
 Charge=             -0.0000 electrons
 Dipole moment (field-independent basis, Debye):
    X=             -0.1014    Y=             -0.9490    Z=              1.3554  Tot=              1.6577
 Quadrupole moment (field-independent basis, Debye-Ang):
   XX=           -101.2140   YY=           -109.2911   ZZ=           -106.2392
   XY=             -1.7347   XZ=              3.7124   YZ=              1.0558
 Traceless Quadrupole moment (field-independent basis, Debye-Ang):
   XX=              4.3675   YY=             -3.7097   ZZ=             -0.6577
   XY=             -1.7347   XZ=              3.7124   YZ=              1.0558
 Octapole moment (field-independent basis, Debye-Ang**2):
  XXX=            -24.5685  YYY=             -7.8766  ZZZ=             -5.7981  XYY=              4.9470
  XXY=             -4.1055  XXZ=             18.1764  XZZ=             -1.5058  YZZ=              1.5256
  YYZ=              2.0316  XYZ=              3.3118
 Hexadecapole moment (field-independent basis, Debye-Ang**3):
 XXXX=          -4560.1754 YYYY=          -1373.9276 ZZZZ=           -368.7347 XXXY=            -11.8035
 XXXZ=             37.5629 YYYX=             10.5737 YYYZ=              2.0669 ZZZX=              9.3771
 ZZZY=             -6.4751 XXYY=           -949.8419 XXZZ=           -885.9548 YYZZ=           -284.3185
 XXYZ=             -2.8187 YYXZ=             -8.5752 ZZXY=             -7.1887
 N-N= 1.499164223861D+03 E-N=-4.893388576371D+03  KE= 8.035642317578D+02
 ******************************Gaussian NBO Version 3.1******************************
             N A T U R A L   A T O M I C   O R B I T A L   A N D
          N A T U R A L   B O N D   O R B I T A L   A N A L Y S I S
 ******************************Gaussian NBO Version 3.1******************************
       /RESON  / : Allow strongly delocalized NBO set
       /NLMO   / : Form Natural Localized Molecular Orbitals
       /NMR /    : Analyze NMR Sheilding Tensor 

 Analyzing the SCF density

 Job title: Title Card Required                                             

 Storage needed:     43472 in NPA,     53775 in NBO,    102144 in NLMO ( 104850000 available)
 GSVD:  LWork=      -13908 too small for GESVD, short by       66690 words or       66690 for optimal perf.


 NATURAL POPULATIONS:  Natural atomic orbital occupancies 
                                                          
   NAO  Atom  No  lang   Type(AO)    Occupancy      Energy
 ----------------------------------------------------------
     1    C    1  S      Cor( 1S)     1.99991     -10.98508
     2    C    1  S      Val( 2S)     1.08171      -0.20164
     3    C    1  px     Val( 2p)     0.95833       0.15700
     4    C    1  py     Val( 2p)     0.95049       0.14938
     5    C    1  pz     Val( 2p)     0.93332       0.02360

     6    C    2  S      Cor( 1S)     1.99995     -10.94774
     7    C    2  S      Val( 2S)     1.08020      -0.18648
     8    C    2  px     Val( 2p)     0.97538       0.14878
     9    C    2  py     Val( 2p)     0.97011       0.15462
    10    C    2  pz     Val( 2p)     1.04843      -0.00251

    11    C    3  S      Cor( 1S)     1.99994     -10.96501
    12    C    3  S      Val( 2S)     1.08027      -0.19014
    13    C    3  px     Val( 2p)     0.98230       0.14130
    14    C    3  py     Val( 2p)     0.98390       0.14405
    15    C    3  pz     Val( 2p)     0.96044       0.01132

    16    C    4  S      Cor( 1S)     1.99994     -10.94953
    17    C    4  S      Val( 2S)     1.07701      -0.18661
    18    C    4  px     Val( 2p)     0.97467       0.14762
    19    C    4  py     Val( 2p)     0.98964       0.14199
    20    C    4  pz     Val( 2p)     1.05491      -0.00745

    21    C    5  S      Cor( 1S)     1.99978     -11.03402
    22    C    5  S      Val( 2S)     1.06260      -0.21823
    23    C    5  px     Val( 2p)     0.85647       0.14458
    24    C    5  py     Val( 2p)     0.93636       0.15161
    25    C    5  pz     Val( 2p)     0.95782      -0.00908

    26    C    6  S      Cor( 1S)     1.99991     -10.96273
    27    C    6  S      Val( 2S)     1.08868      -0.21081
    28    C    6  px     Val( 2p)     0.97704       0.13627
    29    C    6  py     Val( 2p)     0.96832       0.13936
    30    C    6  pz     Val( 2p)     1.09551      -0.01860

    31    C    7  S      Cor( 1S)     1.99996     -11.05691
    32    C    7  S      Val( 2S)     1.07888      -0.24691
    33    C    7  px     Val( 2p)     0.93856       0.10225
    34    C    7  py     Val( 2p)     0.84718       0.18031
    35    C    7  pz     Val( 2p)     0.89523      -0.00600

    36    O    8  S      Cor( 1S)     1.99999     -20.20950
    37    O    8  S      Val( 2S)     1.73598      -1.02332
    38    O    8  px     Val( 2p)     1.11910      -0.04469
    39    O    8  py     Val( 2p)     1.54026      -0.24316
    40    O    8  pz     Val( 2p)     1.85909      -0.36824

    41    C    9  S      Cor( 1S)     1.99988     -11.06252
    42    C    9  S      Val( 2S)     1.08633      -0.24348
    43    C    9  px     Val( 2p)     0.86283       0.07898
    44    C    9  py     Val( 2p)     0.91508       0.07617
    45    C    9  pz     Val( 2p)     0.98439       0.06394

    46    C   10  S      Cor( 1S)     1.99996     -11.00689
    47    C   10  S      Val( 2S)     1.10257      -0.23571
    48    C   10  px     Val( 2p)     0.98681       0.06823
    49    C   10  py     Val( 2p)     0.99717       0.06055
    50    C   10  pz     Val( 2p)     1.00762       0.06510

    51    C   11  S      Cor( 1S)     1.99996     -10.99007
    52    C   11  S      Val( 2S)     1.09188      -0.21183
    53    C   11  px     Val( 2p)     0.98261       0.07680
    54    C   11  py     Val( 2p)     1.00888       0.07162
    55    C   11  pz     Val( 2p)     1.01525       0.07244

    56    C   12  S      Cor( 1S)     1.99993     -11.01626
    57    C   12  S      Val( 2S)     1.07274      -0.20130
    58    C   12  px     Val( 2p)     1.00411       0.07236
    59    C   12  py     Val( 2p)     0.88275       0.11262
    60    C   12  pz     Val( 2p)     1.00100       0.07271

    61    N   13  S      Cor( 1S)     1.99999     -15.24480
    62    N   13  S      Val( 2S)     1.43732      -0.59224
    63    N   13  px     Val( 2p)     1.16074      -0.00463
    64    N   13  py     Val( 2p)     1.09007       0.03036
    65    N   13  pz     Val( 2p)     1.58930      -0.16967

    66    C   14  S      Cor( 1S)     1.99993     -11.02523
    67    C   14  S      Val( 2S)     1.08563      -0.21560
    68    C   14  px     Val( 2p)     0.88319       0.11683
    69    C   14  py     Val( 2p)     0.94665       0.08973
    70    C   14  pz     Val( 2p)     0.98644       0.08149

    71    C   15  S      Cor( 1S)     1.99997     -10.97974
    72    C   15  S      Val( 2S)     1.08692      -0.19802
    73    C   15  px     Val( 2p)     1.00042       0.08498
    74    C   15  py     Val( 2p)     1.01359       0.08078
    75    C   15  pz     Val( 2p)     0.97882       0.08819

    76    C   16  S      Cor( 1S)     1.99998     -10.97893
    77    C   16  S      Val( 2S)     1.07855      -0.19115
    78    C   16  px     Val( 2p)     0.99513       0.07946
    79    C   16  py     Val( 2p)     1.01040       0.08082
    80    C   16  pz     Val( 2p)     0.99415       0.09144

    81    C   17  S      Cor( 1S)     1.99994     -11.00838
    82    C   17  S      Val( 2S)     1.07345      -0.19499
    83    C   17  px     Val( 2p)     0.95400       0.09455
    84    C   17  py     Val( 2p)     1.02059       0.06989
    85    C   17  pz     Val( 2p)     0.91718       0.10223

    86    O   18  S      Cor( 1S)     1.99999     -20.11420
    87    O   18  S      Val( 2S)     1.80523      -1.06246
    88    O   18  px     Val( 2p)     1.87891      -0.34088
    89    O   18  py     Val( 2p)     1.35635      -0.11649
    90    O   18  pz     Val( 2p)     1.20033      -0.12079

    91    C   19  S      Cor( 1S)     1.99997     -10.97678
    92    C   19  S      Val( 2S)     1.07800      -0.18714
    93    C   19  px     Val( 2p)     1.03971       0.07248
    94    C   19  py     Val( 2p)     0.98564       0.08315
    95    C   19  pz     Val( 2p)     1.04326       0.07155

    96    H   20  S      Val( 1S)     0.94633       0.05273

    97    H   21  S      Val( 1S)     0.98075       0.03092

    98    H   22  S      Val( 1S)     0.96791       0.07092

    99    H   23  S      Val( 1S)     0.96761       0.06653

   100    H   24  S      Val( 1S)     0.96089       0.06065

   101    H   25  S      Val( 1S)     0.95549       0.07254

   102    H   26  S      Val( 1S)     0.94767       0.06880

   103    H   27  S      Val( 1S)     0.96537       0.05892

   104    H   28  S      Val( 1S)     0.96992       0.06396

   105    H   29  S      Val( 1S)     0.96174       0.05897

   106    H   30  S      Val( 1S)     0.96484       0.06358

   107    H   31  S      Val( 1S)     0.95910       0.07230

   108    H   32  S      Val( 1S)     0.97068       0.06148

   109    H   33  S      Val( 1S)     0.96079       0.06717

   110    H   34  S      Val( 1S)     0.96509       0.05733

   111    H   35  S      Val( 1S)     0.97034       0.06858

   112    H   36  S      Val( 1S)     0.94050       0.08184

   113    H   37  S      Val( 1S)     0.95528       0.07332

   114    H   38  S      Val( 1S)     0.94063       0.08120


 Summary of Natural Population Analysis:                  
                                                          
                                       Natural Population 
                Natural  -----------------------------------------------
    Atom  No    Charge         Core      Valence    Rydberg      Total
 -----------------------------------------------------------------------
      C    1    0.07625      1.99991     3.92384    0.00000     5.92375
      C    2   -0.07407      1.99995     4.07413    0.00000     6.07407
      C    3   -0.00684      1.99994     4.00690    0.00000     6.00684
      C    4   -0.09616      1.99994     4.09622    0.00000     6.09616
      C    5    0.18697      1.99978     3.81326    0.00000     5.81303
      C    6   -0.12947      1.99991     4.12956    0.00000     6.12947
      C    7    0.24018      1.99996     3.75986    0.00000     5.75982
      O    8   -0.25441      1.99999     6.25442    0.00000     8.25441
      C    9    0.15149      1.99988     3.84863    0.00000     5.84851
      C   10   -0.09414      1.99996     4.09417    0.00000     6.09414
      C   11   -0.09858      1.99996     4.09862    0.00000     6.09858
      C   12    0.03947      1.99993     3.96060    0.00000     5.96053
      N   13   -0.27742      1.99999     5.27743    0.00000     7.27742
      C   14    0.09815      1.99993     3.90192    0.00000     5.90185
      C   15   -0.07971      1.99997     4.07974    0.00000     6.07971
      C   16   -0.07821      1.99998     4.07823    0.00000     6.07821
      C   17    0.03485      1.99994     3.96521    0.00000     5.96515
      O   18   -0.24080      1.99999     6.24081    0.00000     8.24080
      C   19   -0.14658      1.99997     4.14661    0.00000     6.14658
      H   20    0.05367      0.00000     0.94633    0.00000     0.94633
      H   21    0.01925      0.00000     0.98075    0.00000     0.98075
      H   22    0.03209      0.00000     0.96791    0.00000     0.96791
      H   23    0.03239      0.00000     0.96761    0.00000     0.96761
      H   24    0.03911      0.00000     0.96089    0.00000     0.96089
      H   25    0.04451      0.00000     0.95549    0.00000     0.95549
      H   26    0.05233      0.00000     0.94767    0.00000     0.94767
      H   27    0.03463      0.00000     0.96537    0.00000     0.96537
      H   28    0.03008      0.00000     0.96992    0.00000     0.96992
      H   29    0.03826      0.00000     0.96174    0.00000     0.96174
      H   30    0.03516      0.00000     0.96484    0.00000     0.96484
      H   31    0.04090      0.00000     0.95910    0.00000     0.95910
      H   32    0.02932      0.00000     0.97068    0.00000     0.97068
      H   33    0.03921      0.00000     0.96079    0.00000     0.96079
      H   34    0.03491      0.00000     0.96509    0.00000     0.96509
      H   35    0.02966      0.00000     0.97034    0.00000     0.97034
      H   36    0.05950      0.00000     0.94050    0.00000     0.94050
      H   37    0.04472      0.00000     0.95528    0.00000     0.95528
      H   38    0.05937      0.00000     0.94063    0.00000     0.94063
 =======================================================================
   * Total *   -0.00000     37.99889   100.00111    0.00000   138.00000

                                 Natural Population      
 --------------------------------------------------------
   Core                      37.99889 ( 99.9971% of  38)
   Valence                  100.00111 (100.0011% of 100)
   Natural Minimal Basis    138.00000 (100.0000% of 138)
   Natural Rydberg Basis      0.00000 (  0.0000% of 138)
 --------------------------------------------------------

    Atom  No          Natural Electron Configuration
 ----------------------------------------------------------------------------
      C    1      [core]2S( 1.08)2p( 2.84)
      C    2      [core]2S( 1.08)2p( 2.99)
      C    3      [core]2S( 1.08)2p( 2.93)
      C    4      [core]2S( 1.08)2p( 3.02)
      C    5      [core]2S( 1.06)2p( 2.75)
      C    6      [core]2S( 1.09)2p( 3.04)
      C    7      [core]2S( 1.08)2p( 2.68)
      O    8      [core]2S( 1.74)2p( 4.52)
      C    9      [core]2S( 1.09)2p( 2.76)
      C   10      [core]2S( 1.10)2p( 2.99)
      C   11      [core]2S( 1.09)2p( 3.01)
      C   12      [core]2S( 1.07)2p( 2.89)
      N   13      [core]2S( 1.44)2p( 3.84)
      C   14      [core]2S( 1.09)2p( 2.82)
      C   15      [core]2S( 1.09)2p( 2.99)
      C   16      [core]2S( 1.08)2p( 3.00)
      C   17      [core]2S( 1.07)2p( 2.89)
      O   18      [core]2S( 1.81)2p( 4.44)
      C   19      [core]2S( 1.08)2p( 3.07)
      H   20            1S( 0.95)
      H   21            1S( 0.98)
      H   22            1S( 0.97)
      H   23            1S( 0.97)
      H   24            1S( 0.96)
      H   25            1S( 0.96)
      H   26            1S( 0.95)
      H   27            1S( 0.97)
      H   28            1S( 0.97)
      H   29            1S( 0.96)
      H   30            1S( 0.96)
      H   31            1S( 0.96)
      H   32            1S( 0.97)
      H   33            1S( 0.96)
      H   34            1S( 0.97)
      H   35            1S( 0.97)
      H   36            1S( 0.94)
      H   37            1S( 0.96)
      H   38            1S( 0.94)


 NATURAL BOND ORBITAL ANALYSIS:

                       Occupancies       Lewis Structure    Low   High
           Occ.    -------------------  -----------------   occ   occ
  Cycle   Thresh.   Lewis   Non-Lewis     CR  BD  3C  LP    (L)   (NL)   Dev
 =============================================================================
   1(1)    1.90   134.42621   3.57379     19  43   0   7     3      3    0.45
   2(2)    1.90   134.42621   3.57379     19  43   0   7     3      3    0.45
   3(1)    1.80   134.34734   3.65266     19  42   0   8     3      3    0.45
   4(2)    1.80   134.34734   3.65266     19  42   0   8     3      3    0.45
   5(1)    1.70   134.34734   3.65266     19  42   0   8     3      3    0.45
   6(2)    1.70   134.34734   3.65266     19  42   0   8     3      3    0.45
   7(1)    1.60   135.51886   2.48114     19  44   0   6     1      3    0.43
   8(2)    1.60   136.09685   1.90315     19  45   0   5     0      3    0.45
   9(3)    1.60   136.12266   1.87734     19  45   0   5     0      3    0.43
  10(4)    1.60   136.09685   1.90315     19  45   0   5     0      3    0.45
  11(5)    1.60   136.12266   1.87734     19  45   0   5     0      3    0.43
  12(1)    1.50   136.12266   1.87734     19  45   0   5     0      3    0.43
  13(2)    1.50   136.09685   1.90315     19  45   0   5     0      3    0.45
  14(3)    1.50   136.12266   1.87734     19  45   0   5     0      3    0.43
  15(1)    1.60   136.12266   1.87734     19  45   0   5     0      3    0.43
 -----------------------------------------------------------------------------

 Structure accepted: RESONANCE keyword permits strongly delocalized structure

 --------------------------------------------------------
   Core                     37.99889 ( 99.997% of  38)
   Valence Lewis            98.12377 ( 98.124% of 100)
  ==================       ============================
   Total Lewis             136.12266 ( 98.640% of 138)
  -----------------------------------------------------
   Valence non-Lewis         1.87734 (  1.360% of 138)
   Rydberg non-Lewis         0.00000 (  0.000% of 138)
  ==================       ============================
   Total non-Lewis           1.87734 (  1.360% of 138)
 --------------------------------------------------------


       (Occupancy)   Bond orbital/ Coefficients/ Hybrids
 ---------------------------------------------------------------------------------
     1. (1.98528) BD ( 1) C   1 - C   2  
                ( 50.02%)   0.7073* C   1 s( 33.71%)p 1.97( 66.29%)
                                            0.0000  0.5806 -0.6585 -0.4530  0.1550
                ( 49.98%)   0.7070* C   2 s( 34.48%)p 1.90( 65.52%)
                                            0.0001  0.5872  0.6507  0.4597 -0.1435
     2. (1.65656) BD ( 2) C   1 - C   2  
                ( 45.54%)   0.6748* C   1 s(  0.00%)p 1.00(100.00%)
                                           -0.0000 -0.0009  0.1514  0.1147  0.9818
                ( 54.46%)   0.7380* C   2 s(  0.00%)p 1.00(100.00%)
                                           -0.0000 -0.0009  0.1444  0.1039  0.9840
     3. (1.98114) BD ( 1) C   1 - C   6  
                ( 49.47%)   0.7033* C   1 s( 34.60%)p 1.89( 65.40%)
                                            0.0001  0.5883  0.7322 -0.3355 -0.0731
                ( 50.53%)   0.7109* C   6 s( 35.68%)p 1.80( 64.32%)
                                            0.0000  0.5974 -0.7041  0.3782  0.0666
     4. (1.98732) BD ( 1) C   1 - C  19  
                ( 50.18%)   0.7083* C   1 s( 31.68%)p 2.16( 68.32%)
                                           -0.0000  0.5629 -0.0856  0.8180 -0.0819
                ( 49.82%)   0.7059* C  19 s( 25.57%)p 2.91( 74.43%)
                                            0.0001  0.5057  0.1114 -0.8514  0.0837
     5. (1.98977) BD ( 1) C   2 - C   3  
                ( 49.56%)   0.7040* C   2 s( 34.19%)p 1.92( 65.81%)
                                            0.0001  0.5848  0.0583 -0.8054  0.0770
                ( 50.44%)   0.7102* C   3 s( 34.33%)p 1.91( 65.67%)
                                            0.0000  0.5860 -0.0709  0.8041 -0.0712
     6. (1.98876) BD ( 1) C   2 - H  23  
                ( 51.64%)   0.7186* C   2 s( 31.33%)p 2.19( 68.67%)
                                           -0.0001  0.5597 -0.7432  0.3594  0.0716
[...]
 NLMO      Total    Paramagnetic  Diamagnetic   Paramagnetic  Diamagnetic
    3      -0.4791       -0.5384       0.0594        -1.1374       0.6583
    4       0.1396       -1.0814       1.2209        -0.8377       0.9772
    8       0.3699       -0.2076       0.5775        -0.6652       1.0350
   13       0.9358       -0.1462       1.0820        -0.5196       1.4554
   15     -10.7917      -10.9243       0.1325       -11.5023       0.7106
   16     -10.3879      -10.7821       0.3941       -11.0768       0.6888
   17    -117.6407     -127.6192       9.9784      -127.0356       9.3949
   18     -24.7965      -49.8649      25.0684       -49.8677      25.0712
   20      -0.9763       -1.1605       0.1842        -1.1387       0.1624
   23      -0.3322       -0.4404       0.1082        -1.2741       0.9419
   43      -0.3653       -1.7061       1.3408        -1.3290       0.9637
   45      -0.4041       -1.8580       1.4539        -1.3654       0.9612
   63     271.9329       -0.0056     271.9384        -0.0055     271.9384
   68     -34.6124      -69.7324      35.1200       -69.6363      35.0239
   69    -414.9773     -451.9846      37.0073      -454.6061      39.6288
 Sum     -342.3854     -728.0515     385.6662      -731.9972     389.6119

 Contributions to Isotropic shielding for atom   19 (   218.1188 ppm):
                         Standard Origin              Atomic Origin
 NLMO      Total    Paramagnetic  Diamagnetic   Paramagnetic  Diamagnetic
    1      -1.9519       -1.3412      -0.6107        -2.4366       0.4847
    2      -0.9303       -0.7233      -0.2070        -2.5823       1.6520
    3      -1.0370       -1.5009       0.4639        -1.3345       0.2975
    4       3.8448      -11.0655      14.9102        -3.0965       6.9413
    6      -0.6594       -1.5644       0.9050        -1.6961       1.0367
    8       0.8351       -0.3025       1.1376        -0.3487       1.1838
   15      -0.3892        0.0917      -0.4810        -1.2617       0.8725
   17      -0.4525       -0.2747      -0.1778        -1.1894       0.7369
   18       0.2538        0.2902      -0.0365        -1.2328       1.4866
   43       6.9568       -6.0897      13.0464        -4.5111      11.4679
   44       3.9605        5.3673      -1.4068        -7.2279      11.1884
   45       7.2031       -3.9026      11.1057        -4.2136      11.4167
   64     200.0789       -0.0035     200.0824         0.0033     200.0756
 Sum      217.7126      -21.0189     238.7315       -31.1280     248.8406

 Contributions to Isotropic shielding for atom   20 (    31.2040 ppm):
                         Standard Origin              Atomic Origin
 NLMO      Total    Paramagnetic  Diamagnetic   Paramagnetic  Diamagnetic
   13       0.0958       -0.5717       0.6675        -1.2247       1.3204
   16       1.9898        1.5892       0.4006         1.1334       0.8564
   19       0.0182       -0.3836       0.4018        -1.1770       1.1952
   20       1.3398        0.8059       0.5339         0.7512       0.5886
   23       1.1091        1.4273      -0.3182         0.1791       0.9300
   24      25.6539        0.0428      25.6112         0.3263      25.3276
   28       0.2305       -0.8937       1.1242        -0.8011       1.0316
   29      -0.2774       -1.4762       1.1988        -0.9357       0.6583
 Sum       30.1597        0.5400      29.6197        -1.7484      31.9081

 Contributions to Isotropic shielding for atom   21 (    31.4188 ppm):
                         Standard Origin              Atomic Origin
 NLMO      Total    Paramagnetic  Diamagnetic   Paramagnetic  Diamagnetic
   13       0.1205       -0.6542       0.7747        -1.2055       1.3260
   19       0.9038        0.2262       0.6777        -0.5054       1.4092
   20       1.0655       -0.2828       1.3484         0.2991       0.7664
   21       0.4912        0.5706      -0.0794        -0.6953       1.1864
   22      26.2437        0.4109      25.8328         0.6790      25.5647
   27      -0.0679       -1.4905       1.4226        -1.2399       1.1720
   39      -0.2506       -1.1113       0.8608        -0.6502       0.3997
 Sum       28.5062       -2.3313      30.8375        -3.3182      31.8244

 Contributions to Isotropic shielding for atom   22 (    30.2788 ppm):
                         Standard Origin              Atomic Origin
 NLMO      Total    Paramagnetic  Diamagnetic   Paramagnetic  Diamagnetic
   17      -0.4195       -0.5652       0.1457        -1.2819       0.8624
   18       0.2168       -0.2550       0.4718        -1.3044       1.5212
   23       1.1496       -0.1597       1.3094         0.1058       1.0438
   24       0.1706        0.2461      -0.0755        -0.8387       1.0093
   31       0.5882        1.5356      -0.9474        -0.8007       1.3889
   33       0.6626        1.0101      -0.3476        -0.3509       1.0135
   34      26.0411        0.0119      26.0292         0.6107      25.4304
   37      -0.0655       -0.9204       0.8549        -1.2498       1.1842
   38       0.1656       -0.8351       1.0007        -0.6535       0.8191
 Sum       28.5095        0.0683      28.4412        -5.7632      34.2727

 Contributions to Isotropic shielding for atom   23 (    25.8879 ppm):
                         Standard Origin              Atomic Origin
 NLMO      Total    Paramagnetic  Diamagnetic   Paramagnetic  Diamagnetic
    1      -1.4326       -2.7242       1.2916        -2.0120       0.5794
    2       0.7709        1.5974      -0.8265        -2.5892       3.3601
    4      -0.6985        0.7742      -1.4727        -1.7751       1.0766
    5      -2.0305       -1.2505      -0.7800        -2.7376       0.7072
    6      27.0264        0.9467      26.0797         1.5544      25.4720
    9      -0.0818       -0.1287       0.0469        -1.1873       1.1054
   13       0.5663        0.8787      -0.3124        -0.6860       1.2523
   44      -0.1221       -1.3526       1.2306        -0.9016       0.7795
 Sum       23.9981       -1.2591      25.2572       -10.3343      34.3324

 Contributions to Isotropic shielding for atom   24 (    25.2906 ppm):
                         Standard Origin              Atomic Origin
 NLMO      Total    Paramagnetic  Diamagnetic   Paramagnetic  Diamagnetic
    2       1.2257        0.7926       0.4331         0.1599       1.0657
    5      -2.0838       -1.9095      -0.1743        -2.8267       0.7429
    6      -0.1040        0.0509      -0.1549        -1.2341       1.1301
    7      -1.8684       -2.6708       0.8024        -2.5915       0.7230
    8       0.5235        1.3461      -0.8226        -2.2970       2.8205
    9      26.8895        1.1037      25.7858         1.6030      25.2865
   11      -0.1140        0.6522      -0.7662        -1.2218       1.1078
   13       0.4639        0.7750      -0.3111        -0.9121       1.3760
 Sum       24.9322        0.1402      24.7921        -9.3203      34.2526

 Contributions to Isotropic shielding for atom   25 (    25.7094 ppm):
                         Standard Origin              Atomic Origin
 NLMO      Total    Paramagnetic  Diamagnetic   Paramagnetic  Diamagnetic
    2       1.2505       -0.4530       1.7035         0.0225       1.2280
    7      -1.8048       -0.9506      -0.8542        -2.4877       0.6829
    8       0.2289        0.0030       0.2259        -3.1729       3.4018
    9      -0.0510       -1.0189       0.9679        -1.1484       1.0973
   10      -0.9048       -2.5635       1.6587        -1.4606       0.5557
   11      26.5214        1.0769      25.4446         1.3099      25.2115
   14      -0.4947        0.4266      -0.9213        -2.1154       1.6207
   65      -0.2081       -0.4440       0.2358         0.7929      -1.0010
 Sum       24.5374       -3.9235      28.4609        -8.2596      32.7970

 Contributions to Isotropic shielding for atom   26 (    31.5039 ppm):
                         Standard Origin              Atomic Origin
 NLMO      Total    Paramagnetic  Diamagnetic   Paramagnetic  Diamagnetic
   19      -0.0909        0.5144      -0.6053        -1.9459       1.8550
   21       1.5448        0.0443       1.5005         0.7101       0.8347
   25       0.9527        1.7392      -0.7865        -0.0621       1.0147
   26      25.8832        0.1113      25.7718         0.5000      25.3832
   27       2.0056        1.9390       0.0666         0.2154       1.7901
   29       0.1837       -0.5173       0.7010        -0.8479       1.0316
   65      -0.4501       -0.2943      -0.1558         0.6200      -1.0701
 Sum       30.0288        3.5365      26.4923        -0.8104      30.8392

 Contributions to Isotropic shielding for atom   27 (    31.9955 ppm):
                         Standard Origin              Atomic Origin
 NLMO      Total    Paramagnetic  Diamagnetic   Paramagnetic  Diamagnetic
   21       1.4995       -0.1755       1.6750         0.5947       0.9048
   22      -0.2199        0.2823      -0.5022        -1.4097       1.1898
   25       0.9846        1.6865      -0.7020        -0.0386       1.0232
   26       2.0068        1.9178       0.0890         0.0847       1.9221
   27      26.3145       -0.0555      26.3700         0.4411      25.8734
 Sum       30.5854        3.6557      26.9298        -0.3278      30.9132

 Contributions to Isotropic shielding for atom   28 (    31.4006 ppm):
                         Standard Origin              Atomic Origin
 NLMO      Total    Paramagnetic  Diamagnetic   Paramagnetic  Diamagnetic
   20      -0.1772        0.2175      -0.3946        -1.0170       0.8398
   23      -0.0745        0.2525      -0.3270        -1.0277       0.9532
   25       1.3231       -0.5143       1.8374         0.4023       0.9208
   26       0.1052        0.0759       0.0293        -0.9259       1.0311
   28       1.2863       -0.1011       1.3874        -0.0975       1.3838
   29      26.3465        0.3698      25.9767         0.6264      25.7201
   30       1.3854        1.9942      -0.6087        -0.5495       1.9349
 Sum       30.1948        2.2945      27.9003        -2.5890      32.7838

 Contributions to Isotropic shielding for atom   29 (    31.7337 ppm):
                         Standard Origin              Atomic Origin
 NLMO      Total    Paramagnetic  Diamagnetic   Paramagnetic  Diamagnetic
   27       0.1692        0.5447      -0.3755        -0.8739       1.0431
   28       0.4632        1.4962      -1.0329        -0.6477       1.1109
   29       1.8038        1.8306      -0.0268        -0.0530       1.8568
   30      26.3869        0.0602      26.3266         0.8299      25.5569
   32      -0.3560        0.3183      -0.6743        -1.4525       1.0964
   41      -0.1140       -1.5545       1.4406        -0.9425       0.8285
 Sum       28.3530        2.6954      25.6576        -3.1396      31.4927

 Contributions to Isotropic shielding for atom   30 (    33.0518 ppm):
                         Standard Origin              Atomic Origin
 NLMO      Total    Paramagnetic  Diamagnetic   Paramagnetic  Diamagnetic
   18      -0.2551       -0.3637       0.1086        -1.3934       1.1383
   23      -0.1491       -0.4245       0.2754        -1.0874       0.9383
   33       1.8275       -0.8656       2.6931         1.2363       0.5912
   36      26.2106        0.3859      25.8247         0.3996      25.8110
   37       2.0364        1.3955       0.6408         0.2620       1.7743
   39       0.1220       -1.2798       1.4017        -0.9755       1.0974
 Sum       29.7921       -1.1522      30.9443        -1.5584      31.3505

 Contributions to Isotropic shielding for atom   31 (    31.7342 ppm):
                         Standard Origin              Atomic Origin
 NLMO      Total    Paramagnetic  Diamagnetic   Paramagnetic  Diamagnetic
   18      -0.0021       -0.2260       0.2239        -1.0066       1.0045
   33       1.2414        0.5538       0.6876         0.4107       0.8307
   34      -0.1502        0.0172      -0.1674        -1.3087       1.1586
   35       0.4691        2.2635      -1.7945        -0.4043       0.8733
   36       2.1408        0.7667       1.3741         0.3064       1.8345
   37      26.1432       -0.2207      26.3640         0.4622      25.6810
   40       0.0909       -0.7169       0.8078        -0.9484       1.0393
 Sum       29.9331        2.4377      27.4955        -2.4887      32.4219

 Contributions to Isotropic shielding for atom   32 (    32.5964 ppm):
                         Standard Origin              Atomic Origin
 NLMO      Total    Paramagnetic  Diamagnetic   Paramagnetic  Diamagnetic
   31      -0.2932        0.0153      -0.3084        -1.0358       0.7426
   32       0.3718       -0.9933       1.3651        -0.0615       0.4333
   35       1.7163       -1.6017       3.3180         0.9377       0.7785
   36      -0.0224        0.0069      -0.0292        -1.0728       1.0504
   38       1.2336        0.4436       0.7900         0.5237       0.7099
   39      26.3836        0.3477      26.0359         0.3595      26.0241
   40       1.9106        2.0438      -0.1332         0.1020       1.8086
 Sum       31.3003        0.2623      31.0381        -0.2471      31.5474

 Contributions to Isotropic shielding for atom   33 (    32.3447 ppm):
                         Standard Origin              Atomic Origin
 NLMO      Total    Paramagnetic  Diamagnetic   Paramagnetic  Diamagnetic
   31      -0.2128        0.0917      -0.3045        -1.1141       0.9012
   32       0.2526       -0.7610       1.0136         0.1833       0.0693
   35       1.2889        0.3810       0.9079         0.5239       0.7650
   37       0.0379        0.7170      -0.6791        -1.0914       1.1292
   38       0.5002        2.1745      -1.6743        -0.2065       0.7068
   39       2.1410        1.2451       0.8959         0.3970       1.7440
   40      26.2758       -0.1064      26.3822         0.5141      25.7617
   42       0.1597       -0.3039       0.4636        -0.9235       1.0832
 Sum       30.4432        3.4381      27.0051        -1.7171      32.1603

 Contributions to Isotropic shielding for atom   34 (    31.8670 ppm):
                         Standard Origin              Atomic Origin
 NLMO      Total    Paramagnetic  Diamagnetic   Paramagnetic  Diamagnetic
   28      -0.4494        0.9037      -1.3531        -1.5979       1.1485
   32       1.1008       -0.6526       1.7534         0.3331       0.7678
   33      -0.1322        0.2429      -0.3751        -1.0394       0.9072
   39       0.0897        0.2584      -0.1687        -0.9502       1.0399
   41      26.4585        0.2556      26.2029         0.8484      25.6100
   42       1.5296        2.8109      -1.2813        -0.2878       1.8175
   67       1.0432        0.1211       0.9221         0.9559       0.0873
 Sum       29.6402        3.9399      25.7003        -1.7379      31.3781

 Contributions to Isotropic shielding for atom   35 (    31.2974 ppm):
                         Standard Origin              Atomic Origin
 NLMO      Total    Paramagnetic  Diamagnetic   Paramagnetic  Diamagnetic
   32       1.2857        0.0754       1.2103         0.0038       1.2819
   33      -0.1790        0.4030      -0.5820        -1.1151       0.9361
   41       1.3580        2.6439      -1.2858        -0.5513       1.9094
   42      26.4512        0.1137      26.3375         0.7818      25.6694
 Sum       28.9160        3.2360      25.6800        -0.8808      29.7968

 Contributions to Isotropic shielding for atom   36 (    30.8609 ppm):
                         Standard Origin              Atomic Origin
 NLMO      Total    Paramagnetic  Diamagnetic   Paramagnetic  Diamagnetic
    2      -0.7870       -0.5482      -0.2388        -1.6888       0.9018
    4       1.8790       -0.8921       2.7711         1.0076       0.8714
    8       0.5441       -0.2272       0.7713        -0.5416       1.0857
   15      -0.3108        0.1726      -0.4835        -1.2264       0.9155
   18       0.1575        0.1625      -0.0049        -1.1950       1.3526
   43      25.6915        0.2763      25.4152         0.3467      25.3448
   44       1.7972        2.3651      -0.5679        -0.0870       1.8842
   45       2.2082        0.3626       1.8456         0.3833       1.8250
 Sum       31.1797        1.6717      29.5081        -3.0011      34.1809

 Contributions to Isotropic shielding for atom   37 (    30.9816 ppm):
                         Standard Origin              Atomic Origin
 NLMO      Total    Paramagnetic  Diamagnetic   Paramagnetic  Diamagnetic
    1      -1.0036        0.2309      -1.2344        -1.9134       0.9098
    2      -0.7507        0.0878      -0.8385        -2.3588       1.6081
    4       1.0243        0.8627       0.1616         0.2668       0.7575
    6      -0.0085       -1.4133       1.4048        -0.9448       0.9362
   18       0.0711        0.1269      -0.0558        -0.9422       1.0133
   43       2.0659        2.0559       0.0100         0.0805       1.9855
   44      26.2606       -0.1534      26.4140         0.5271      25.7335
   45       2.0956        2.4223      -0.3267         0.1277       1.9678
 Sum       29.7547        4.2198      25.5350        -5.1570      34.9118

 Contributions to Isotropic shielding for atom   38 (    31.0627 ppm):
                         Standard Origin              Atomic Origin
 NLMO      Total    Paramagnetic  Diamagnetic   Paramagnetic  Diamagnetic
    2      -0.8491       -0.4478      -0.4012        -1.7622       0.9132
    4       1.8397       -0.5395       2.3792         0.9715       0.8682
    8       0.5751       -0.1733       0.7484        -0.5137       1.0887
   15      -0.3111        0.2102      -0.5213        -1.2317       0.9206
   18       0.0728        0.3016      -0.2288        -1.2293       1.3021
   43       2.2290        0.2689       1.9601         0.4239       1.8051
   44       1.7781        2.6390      -0.8609        -0.0980       1.8762
   45      25.7108        0.2278      25.4831         0.3506      25.3602
 Sum       31.0453        2.4868      28.5585        -3.0889      34.1342
 
 1\1\GINC-GNOSIE-MM\SP\RHF\STO-3G\C16H19N1O2\MBENIDD\18-May-2026\0\\# n
 mr=giao hf/sto-3g pop=nbo\\Title Card Required\\0,1\C,0,0.,0.,0.\C,0,1
 .4073,0.,0.\C,0,2.1282,1.1938,0.\C,0,1.4543,2.4099,0.012\C,0,0.0599,2.
 4335,0.0326\C,0,-0.6759,1.2368,0.0069\C,0,-2.1552,1.3492,-0.0504\O,0,-
 0.4985,3.6877,0.0558\C,0,-1.8288,3.6927,0.5914\C,0,-2.7069,2.7483,-0.2
 11\C,0,-2.3566,5.133,0.5644\C,0,-3.6567,5.2692,-0.2276\N,0,-4.6818,4.2
 762,0.0983\C,0,-4.1806,2.8819,0.1996\C,0,-4.4977,2.4236,1.6335\C,0,-4.
 8641,3.6822,2.3911\C,0,-5.4376,4.5786,1.3173\O,0,-2.8831,0.3613,-0.023
 5\C,0,-0.7091,-1.3268,-0.0214\H,0,-2.6139,2.9676,-1.2854\H,0,-1.7577,3
 .3801,1.6436\H,0,-4.7763,2.2643,-0.4857\H,0,1.9559,-0.9408,-0.009\H,0,
 3.2153,1.1736,-0.0086\H,0,2.0143,3.3415,0.0151\H,0,-1.6082,5.8174,0.14
 62\H,0,-2.5277,5.4694,1.5942\H,0,-3.4261,5.1784,-1.2973\H,0,-4.055,6.2
 854,-0.1162\H,0,-3.6829,1.8896,2.1306\H,0,-5.3664,1.7532,1.6136\H,0,-3
 .971,4.1296,2.8398\H,0,-5.5799,3.4843,3.1946\H,0,-5.4171,5.635,1.606\H
 ,0,-6.4882,4.3157,1.1431\H,0,-1.3399,-1.4394,0.8658\H,0,0.0013,-2.161,
 -0.0145\H,0,-1.3102,-1.4264,-0.9306\\Version=EM64L-G16RevB.01\State=1-
 A\HF=-811.0495572\RMSD=7.406e-09\Dipole=0.3403781,0.2811044,0.4800813\
 Quadrupole=-0.9362775,0.419365,0.5169126,-3.0251348,-2.6390938,1.52189
 12\PG=C01 [X(C16H19N1O2)]\\@


 O WAD SOME POWER THE GIFTIE GIE US       
 TO SEE OURSELS AS OTHERS SEE US.....     
 IT WOULD FRAE MONIE A BLUNDER FREE US,   
                     AND FOOLISH NOTION...
 WHAT AIRS IN DRESS AND GAIT WAD LEA'E US,
                     AND EV'N DEVOTION....
                                          
              (ROBERT BURNS 'TO A LOUSE') 
 Job cpu time:       0 days  0 hours  3 minutes 44.1 seconds.
 Elapsed time:       0 days  0 hours  2 minutes  2.3 seconds.
 File lengths (MBytes):  RWF=     14 Int=      0 D2E=      0 Chk=      2 Scr=      1
 Normal termination of Gaussian 16 at Mon May 18 12:10:44 2026.
